pen-esp
 9000
    1en-    CQM    1   3.082   0.317   0.097 -0.0524 -0.2081  0.1639
    1en-    CQM    2   2.989   0.264   0.188 -0.2829 -0.1425  0.1439
    1en-    CQM    3   3.011   0.258   0.324  0.5394 -0.4063 -0.7846
    1en-    CQM    4   2.916   0.206   0.413  0.4635  0.4696 -0.3925
    1en-    CQM    5   2.934   0.208   0.547 -0.1077 -0.3192 -0.1563
    1en-    CQM    6   3.044   0.270   0.604  0.1274 -0.2935  0.2791
    1en-    CQM    7   3.148   0.314   0.513  0.3639 -0.1986 -0.4089
    1en-    CQM    8   3.135   0.311   0.369  0.3714 -0.2284 -0.0548
    1en-    CQM    9   3.224   0.368   0.282 -0.3874 -0.3534 -0.5193
    1en-    CQM   10   3.211   0.365   0.142 -0.2351 -0.8102  0.1258
    1en-    CQM   11   3.057   0.330  -0.040 -0.1114 -0.3060  0.1017
    1en-    HQM   12   2.900   0.213   0.152 -0.5496  0.1675  0.3610
    1en-    HQM   13   2.826   0.156   0.377 -0.2687  0.7657  1.0155
    1en-    HQM   14   2.852   0.170   0.608  0.3805  1.7286  1.8462
    1en-    HQM   15   3.062   0.268   0.711  1.4885  2.4956  0.1430
    1en-    HQM   16   3.244   0.350   0.551 -0.5660  1.5766  0.3593
    1en-    HQM   17   3.317   0.410   0.319 -1.4497  2.1234 -0.5341
    1en-    HQM   18   2.958   0.295  -0.069 -0.0825  1.5726 -2.4286
    1en-    CQM   19   3.149   0.384  -0.126  0.3871 -0.2941 -0.0847
    1en-    CQM   20   3.283   0.417  -0.079 -0.4170 -0.1221 -0.1190
    1en-    CQM   21   3.376   0.467  -0.170 -0.2544 -0.9294 -0.0294
    1en-    CQM   22   3.345   0.483  -0.306 -0.5738  0.0170  0.4107
    1en-    CQM   23   3.433   0.542  -0.398  0.7180  0.1583 -0.3258
    1en-    CQM   24   3.393   0.577  -0.524  0.3136 -0.7823 -0.1964
    1en-    CQM   25   3.263   0.550  -0.570 -0.1532 -0.6991 -0.6576
    1en-    CQM   26   3.172   0.498  -0.481  0.0338 -0.0211  0.1733
    1en-    CQM   27   3.214   0.459  -0.349  0.0757 -0.5472  0.6311
    1en-    CQM   28   3.123   0.401  -0.261  0.2133 -0.4463  1.0977
    1en-    HQM   29   3.025   0.373  -0.296 -0.9146  1.9918  2.2002
    1en-    HQM   30   3.073   0.472  -0.517  1.1636 -1.8289 -1.7583
    1en-    HQM   31   3.242   0.587  -0.670  0.5840  1.9483  0.1203
    1en-    HQM   32   3.459   0.628  -0.595 -0.8465  0.7360 -0.2061
    1en-    HQM   33   3.533   0.574  -0.373  1.6839 -2.5391 -0.5980
    1en-    HQM   34   3.475   0.496  -0.138  0.4122 -1.0878 -1.9158
    1en-    CQM   35   3.310   0.416   0.055  0.0817  0.2872 -0.1703
    1en-    HQM   36   3.409   0.449   0.086  0.3158  0.6936 -1.3315
    2en-    CQM   37   0.579   3.815   0.108  0.3088 -0.3143  0.4823
    2en-    CQM   38   0.474   3.804   0.207 -0.5331  0.5101 -0.7032
    2en-    CQM   39   0.504   3.755   0.333  0.1069 -0.7308 -0.8441
    2en-    CQM   40   0.417   3.776   0.441  0.8387 -0.6340  0.3088
    2en-    CQM   41   0.446   3.723   0.562  0.2482 -0.6892  0.5928
    2en-    CQM   42   0.573   3.665   0.589 -0.2850 -0.0812 -0.3795
    2en-    CQM   43   0.662   3.652   0.489 -0.2410 -0.7637  0.4170
    2en-    CQM   44   0.630   3.702   0.361 -0.4325 -0.2292 -0.2238
    2en-    CQM   45   0.733   3.702   0.265  0.6676 -0.3028 -0.8309
    2en-    CQM   46   0.706   3.762   0.135  0.4142  0.2201 -0.3431
    2en-    CQM   47   0.551   3.881  -0.013 -0.6321 -0.4057  0.5071
    2en-    HQM   48   0.378   3.854   0.193  0.8588  3.2909 -0.6288
    2en-    HQM   49   0.327   3.835   0.427 -1.0992 -3.8807 -1.7312
    2en-    HQM   50   0.371   3.732   0.640 -0.6894  3.0488 -0.6395
    2en-    HQM   51   0.588   3.632   0.691 -1.7944  1.2471  0.3103
    2en-    HQM   52   0.758   3.601   0.500 -0.5509 -2.1699 -2.9895
    2en-    HQM   53   0.833   3.669   0.292  1.0088  2.9017  2.4232
    2en-    HQM   54   0.457   3.935  -0.020 -0.1852  0.5502  1.5687
    2en-    CQM   55   0.649   3.896  -0.119  0.3976  0.3248 -0.1883
    2en-    CQM   56   0.773   3.834  -0.094 -0.3341 -0.7240 -0.7900
    2en-    CQM   57   0.877   3.846  -0.188 -0.7445  0.0174 -0.3279
    2en-    CQM   58   0.850   3.901  -0.313 -0.3275  0.2909 -0.1516
    2en-    CQM   59   0.951   3.911  -0.402 -0.5778  0.1316  0.3818
    2en-    CQM   60   0.933   3.977  -0.528  0.2333  0.0679  0.1973
    2en-    CQM   61   0.811   4.040  -0.560  0.2400 -0.3162  0.2494
    2en-    CQM   62   0.706   4.028  -0.462  0.6016 -0.4182 -0.5344
    2en-    CQM   63   0.726   3.958  -0.342  0.3835 -0.5693 -0.6548
    2en-    CQM   64   0.623   3.962  -0.242 -0.4643  0.0292  0.3945
    2en-    HQM   65   0.525   3.999  -0.272  0.7611  2.1466 -1.1305
    2en-    HQM   66   0.613   4.085  -0.469  0.8050  0.0970  0.8652
    2en-    HQM   67   0.794   4.102  -0.647 -0.4265  1.5614  1.6632
    2en-    HQM   68   1.014   3.984  -0.600 -1.2847  2.0564 -1.3647
    2en-    HQM   69   1.049   3.865  -0.389 -0.2052  0.7357 -0.2481
    2en-    HQM   70   0.977   3.816  -0.159 -1.4165 -0.6227  1.4402
    2en-    CQM   71   0.799   3.773   0.030  0.2366  0.1805 -0.5603
    2en-    HQM   72   0.895   3.729   0.051  0.2429  1.1402  1.5590
    3en-    CQM   73   3.120   0.648   1.487  0.3263  0.0390 -0.7540
    3en-    CQM   74   3.025   0.588   1.572 -0.1180  0.3264 -0.1486
    3en-    CQM   75   3.052   0.570   1.709 -0.4786  0.0602  0.0529
    3en-    CQM   76   2.950   0.524   1.791 -0.0632 -0.1235 -0.1373
    3en-    CQM   77   2.973   0.504   1.929 -0.9602  0.6684  0.0359
    3en-    CQM   78   3.099   0.534   1.979 -0.3504 -0.1303  0.7509
    3en-    CQM   79   3.193   0.603   1.904  0.7556  0.6713 -0.0362
    3en-    CQM   80   3.174   0.611   1.763 -0.4376  0.1557 -0.4378
    3en-    CQM   81   3.266   0.674   1.682 -0.1621 -0.0372  0.2232
    3en-    CQM   82   3.240   0.688   1.545 -0.5743  0.1141  0.5794
    3en-    CQM   83   3.105   0.667   1.350  0.2501  0.0651 -0.1561
    3en-    HQM   84   2.934   0.558   1.521  1.0371 -0.6658 -1.6966
    3en-    HQM   85   2.853   0.501   1.747 -0.7550 -0.3395  1.4603
    3en-    HQM   86   2.893   0.457   1.986 -0.2457  1.8443  2.0447
    3en-    HQM   87   3.111   0.525   2.087  2.2196  0.2307  0.5321
    3en-    HQM   88   3.288   0.640   1.942  0.5087  3.3733 -1.9570
    3en-    HQM   89   3.353   0.721   1.726 -0.2698 -0.5255  0.9677
    3en-    HQM   90   3.012   0.636   1.302 -0.9212  2.9282  0.1846
    3en-    CQM   91   3.206   0.718   1.268 -0.0384  0.2554 -0.7325
    3en-    CQM   92   3.331   0.752   1.328  0.1775  0.5254  0.3702
    3en-    CQM   93   3.439   0.789   1.240  0.9471 -0.0406 -0.7599
    3en-    CQM   94   3.422   0.809   1.102  0.4289  0.1656  0.0573
    3en-    CQM   95   3.517   0.876   1.019 -0.4818  0.6219 -1.4236
    3en-    CQM   96   3.504   0.888   0.883  0.1846  0.9996  0.4644
    3en-    CQM   97   3.380   0.847   0.828  0.0668  0.0925 -0.4583
    3en-    CQM   98   3.281   0.781   0.903  0.0323  0.3760  0.0820
    3en-    CQM   99   3.300   0.770   1.042  1.1794  0.4942  0.1209
    3en-    CQM  100   3.196   0.724   1.123 -0.3049  0.4542  0.1274
    3en-    HQM  101   3.098   0.691   1.089 -1.1468  0.1873  2.7143
    3en-    HQM  102   3.189   0.752   0.852  0.5456  0.1029 -0.6932
    3en-    HQM  103   3.362   0.857   0.721 -1.0671  0.5503 -0.2306
    3en-    HQM  104   3.576   0.934   0.816 -0.2532 -1.5798 -1.8788
    3en-    HQM  105   3.611   0.902   1.067 -0.9586 -0.8716  0.3915
    3en-    HQM  106   3.529   0.823   1.292  0.9397 -3.3796  1.5971
    3en-    CQM  107   3.344   0.746   1.467  0.8203 -0.3570 -0.3037
    3en-    HQM  108   3.436   0.757   1.523 -0.5824  0.9008  1.8083
    4en-    CQM  109   0.277   0.344   1.525  0.1718  0.5005 -0.6322
    4en-    CQM  110   0.175   0.336   1.621 -0.1317  0.3355 -0.1408
    4en-    CQM  111   0.202   0.271   1.745 -0.0029  0.7419  0.0638
    4en-    CQM  112   0.098   0.253   1.838  0.3100  0.1444  0.0699
    4en-    CQM  113   0.117   0.182   1.954  0.2397 -0.1120  0.7968
    4en-    CQM  114   0.244   0.151   1.985  0.2236 -0.3248 -0.2535
    4en-    CQM  115   0.345   0.144   1.892  0.8828  0.0570 -0.5808
    4en-    CQM  116   0.322   0.209   1.769 -0.5498  0.1671  0.1862
    4en-    CQM  117   0.425   0.211   1.673 -0.4154 -0.5552  0.1294
    4en-    CQM  118   0.397   0.274   1.546  0.1110  0.1228 -0.5479
    4en-    CQM  119   0.253   0.393   1.397 -0.2109 -0.7180  0.5813
    4en-    HQM  120   0.076   0.378   1.606 -0.6769 -0.1679  1.8987
    4en-    HQM  121   0.002   0.298   1.815  0.1989  0.7343  1.6611
    4en-    HQM  122   0.033   0.172   2.023 -0.4793  0.0669 -0.0530
    4en-    HQM  123   0.263   0.092   2.074  1.8169  0.3539 -0.1185
    4en-    HQM  124   0.441   0.096   1.910  0.6234  0.3884  1.7464
    4en-    HQM  125   0.520   0.162   1.692  0.9448  1.0621 -2.1475
    4en-    HQM  126   0.164   0.452   1.378  0.1945 -0.0528  0.7124
    4en-    CQM  127   0.354   0.392   1.304 -0.0821 -0.1800 -0.7139
    4en-    CQM  128   0.479   0.327   1.330  0.1958  0.1189 -0.0030
    4en-    CQM  129   0.575   0.336   1.223  0.4512  0.6976 -0.2042
    4en-    CQM  130   0.543   0.386   1.098  0.9566 -0.3748 -0.0648
    4en-    CQM  131   0.637   0.382   0.993 -0.0567 -0.5213 -0.3923
    4en-    CQM  132   0.614   0.445   0.871  0.0288  0.3636  0.1910
    4en-    CQM  133   0.486   0.493   0.848 -0.2477  0.7646  0.9691
    4en-    CQM  134   0.386   0.500   0.945 -0.4632 -0.2757  0.1182
    4en-    CQM  135   0.416   0.438   1.071  0.6279  0.3801  0.4697
    4en-    CQM  136   0.325   0.449   1.176  0.0700 -0.1110 -0.4445
    4en-    HQM  137   0.224   0.487   1.163 -1.2271 -1.9354  3.5028
    4en-    HQM  138   0.292   0.546   0.916  0.7374  1.7807 -0.5266
    4en-    HQM  139   0.469   0.547   0.755 -0.3621 -0.3429  0.3395
    4en-    HQM  140   0.692   0.442   0.795 -0.9122  2.4940 -0.9097
    4en-    HQM  141   0.731   0.333   1.010 -0.5474 -1.8885 -1.5215
    4en-    HQM  142   0.672   0.289   1.240 -0.1092 -0.4196 -0.0354
    4en-    CQM  143   0.503   0.268   1.450  0.3715 -0.0731 -1.0870
    4en-    HQM  144   0.592   0.209   1.469  0.9039  0.7820 -0.9132
    5en-    CQM  145   0.023   0.977   2.883 -0.4118 -0.1122  0.2021
    5en-    CQM  146  -0.074   0.923   2.972  0.5968 -0.6550 -0.0702
    5en-    CQM  147  -0.048   0.910   3.107  0.9458 -0.0519 -0.3672
    5en-    CQM  148  -0.141   0.852   3.188  0.1038  0.3231  0.6525
    5en-    CQM  149  -0.122   0.841   3.326  0.4233 -0.0620 -0.5857
    5en-    CQM  150   0.000   0.884   3.386 -0.2573  0.2517 -0.6178
    5en-    CQM  151   0.101   0.940   3.306 -0.0359  0.0255  0.0823
    5en-    CQM  152   0.079   0.956   3.168  0.3098  0.1966 -0.0674
    5en-    CQM  153   0.172   1.013   3.082  0.0891 -0.1862  0.8448
    5en-    CQM  154   0.141   1.026   2.942  0.2264 -0.6857  0.2613
    5en-    CQM  155   0.005   0.986   2.746 -0.2476 -0.0955 -0.2557
    5en-    HQM  156  -0.163   0.872   2.937 -0.2010  0.8109 -0.2326
    5en-    HQM  157  -0.228   0.809   3.139 -1.0872  0.7866  2.3286
    5en-    HQM  158  -0.198   0.801   3.393  0.4725 -2.3925 -1.8583
    5en-    HQM  159   0.019   0.878   3.493  0.4942 -0.9449 -0.8066
    5en-    HQM  160   0.188   0.980   3.357  0.8197 -1.4174 -0.2110
    5en-    HQM  161   0.263   1.057   3.122  1.3178 -1.2402 -0.7602
    5en-    HQM  162  -0.091   0.956   2.705  0.1696 -1.8363 -0.0135
    5en-    CQM  163   0.104   1.059   2.668 -0.1071  0.3972  0.1636
    5en-    CQM  164   0.228   1.090   2.725 -0.0896 -0.5535 -0.8462
    5en-    CQM  165   0.336   1.142   2.645 -0.4273  0.5380  0.0740
    5en-    CQM  166   0.327   1.158   2.510  0.5384  0.5198 -0.3829
    5en-    CQM  167   0.430   1.194   2.431  0.3140 -0.0453  0.0681
    5en-    CQM  168   0.408   1.221   2.295  0.2904 -0.0247 -0.1763
    5en-    CQM  169   0.294   1.178   2.228  0.6726 -0.4674 -0.2813
    5en-    CQM  170   0.191   1.121   2.309 -0.7494 -0.8590  0.3810
    5en-    CQM  171   0.204   1.121   2.449 -0.2481 -0.1387  0.3690
    5en-    CQM  172   0.091   1.072   2.521 -0.8509 -0.6020  0.6948
    5en-    HQM  173   0.003   1.027   2.476  1.4137 -1.8121 -2.6891
    5en-    HQM  174   0.100   1.092   2.259 -0.7933  2.2026 -1.4844
    5en-    HQM  175   0.290   1.189   2.120 -1.3733  1.8881 -0.0185
    5en-    HQM  176   0.485   1.272   2.238  1.0566 -1.8251 -0.7866
    5en-    HQM  177   0.525   1.230   2.470  0.2583  0.9347 -0.7008
    5en-    HQM  178   0.430   1.162   2.694 -0.1375 -0.9788  0.1648
    5en-    CQM  179   0.246   1.076   2.862 -0.0249 -0.6791  0.1252
    5en-    HQM  180   0.342   1.105   2.905 -1.5874 -0.1963  3.5223
    6en-    CQM  181   0.291   0.631   2.928 -0.5873  0.6004  0.5462
    6en-    CQM  182   0.192   0.624   3.029  0.2514  1.0888  0.7572
    6en-    CQM  183   0.220   0.554   3.147 -0.1042 -0.6289 -0.1494
    6en-    CQM  184   0.119   0.544   3.247  0.4372 -0.2716 -0.0984
    6en-    CQM  185   0.145   0.465   3.359 -0.2352 -0.0867 -0.3351
    6en-    CQM  186   0.267   0.393   3.377 -0.1134  0.0626  0.3165
    6en-    CQM  187   0.369   0.413   3.283 -0.0243  0.2910 -0.2620
    6en-    CQM  188   0.341   0.488   3.166  0.3967 -0.5202 -0.3313
    6en-    CQM  189   0.440   0.493   3.069 -0.7175  0.5220  0.9955
    6en-    CQM  190   0.418   0.564   2.954 -0.7438 -0.5215  0.5423
    6en-    CQM  191   0.279   0.702   2.808  0.8977  0.4939 -0.0267
    6en-    HQM  192   0.099   0.677   3.013 -1.0404 -1.5633 -0.7134
    6en-    HQM  193   0.018   0.584   3.243 -0.5274 -2.3839  1.7446
    6en-    HQM  194   0.071   0.464   3.439 -0.0694 -0.9927 -0.1821
    6en-    HQM  195   0.290   0.343   3.470  2.7635  0.8661  0.0804
    6en-    HQM  196   0.465   0.367   3.306 -0.3347 -0.6556 -0.8192
    6en-    HQM  197   0.529   0.432   3.078 -0.4001  0.8290  0.0241
    6en-    HQM  198   0.185   0.755   2.794 -0.1870 -1.2189  0.6188
    6en-    CQM  199   0.383   0.701   2.711 -0.4300  0.4050 -0.0556
    6en-    CQM  200   0.502   0.639   2.733  0.0644  0.2040 -0.2186
    6en-    CQM  201   0.596   0.632   2.630  0.4398 -0.4181  0.0782
    6en-    CQM  202   0.576   0.699   2.509 -1.0966 -0.7743  0.6200
    6en-    CQM  203   0.681   0.709   2.418 -0.4138  0.4619 -0.4448
    6en-    CQM  204   0.677   0.794   2.308 -0.9769 -0.0435  0.1568
    6en-    CQM  205   0.561   0.868   2.288 -0.0540  1.2158  0.5279
    6en-    CQM  206   0.451   0.855   2.375 -0.3109 -0.5193 -0.0726
    6en-    CQM  207   0.462   0.770   2.486  0.4724 -0.5726 -0.3442
    6en-    CQM  208   0.364   0.771   2.588 -0.3003  0.4000 -0.3912
    6en-    HQM  209   0.266   0.813   2.569  0.5299  2.3315 -0.5033
    6en-    HQM  210   0.365   0.917   2.349  0.6745  1.2154  0.7303
    6en-    HQM  211   0.560   0.946   2.213  1.1481 -0.2887 -1.1041
    6en-    HQM  212   0.765   0.801   2.245 -0.6045 -1.9687  0.4158
    6en-    HQM  213   0.767   0.644   2.425 -0.1474  0.8392 -0.1909
    6en-    HQM  214   0.693   0.585   2.643  0.3057 -1.2373 -1.7001
    6en-    CQM  215   0.522   0.572   2.858  0.4558 -0.6111  0.1672
    6en-    HQM  216   0.622   0.535   2.875  0.7376  0.7258  1.4442
    7en-    CQM  217   0.092   1.334   4.283 -0.4132  0.4636 -0.1661
    7en-    CQM  218  -0.009   1.283   4.371  0.3219 -0.4895  0.2561
    7en-    CQM  219   0.015   1.269   4.508  0.2763  0.5449 -0.8272
    7en-    CQM  220  -0.083   1.217   4.594 -0.1748  0.5174  0.3303
    7en-    CQM  221  -0.060   1.211   4.730 -0.5202 -0.6335  0.0235
    7en-    CQM  222   0.055   1.261   4.784  0.4873 -0.0564  0.4482
    7en-    CQM  223   0.157   1.327   4.702  0.1029 -0.0203  0.1116
    7en-    CQM  224   0.136   1.322   4.562 -0.3473  0.1105 -0.3911
    7en-    CQM  225   0.227   1.383   4.483 -1.1618 -0.2440 -0.1466
    7en-    CQM  226   0.213   1.382   4.341 -0.1523 -0.4503  0.2455
    7en-    CQM  227   0.073   1.333   4.145 -0.2682  1.4533  0.1078
    7en-    HQM  228  -0.098   1.245   4.322  0.0202 -0.4024  0.7368
    7en-    HQM  229  -0.172   1.169   4.555  1.5459 -2.6016  0.1020
    7en-    HQM  230  -0.133   1.161   4.793  0.9768  0.1155  2.4400
    7en-    HQM  231   0.071   1.253   4.891  1.1451 -0.4114  0.3253
    7en-    HQM  232   0.243   1.370   4.753  0.0781  1.0980 -0.7646
    7en-    HQM  233   0.316   1.429   4.526 -1.9138 -0.0012  1.1774
    7en-    HQM  234  -0.013   1.280   4.106  0.7557 -0.1117 -0.0919
    7en-    CQM  235   0.176   1.390   4.068  1.3185  0.3293  0.4887
    7en-    CQM  236   0.297   1.438   4.122  0.7401  0.4019 -0.2295
    7en-    CQM  237   0.401   1.484   4.041 -0.1375 -0.3288  0.1692
    7en-    CQM  238   0.377   1.486   3.902  0.0617  0.4897 -0.4360
    7en-    CQM  239   0.480   1.531   3.814 -0.0644  0.5014 -0.1363
    7en-    CQM  240   0.451   1.542   3.677  0.1735  0.4892  0.0257
    7en-    CQM  241   0.325   1.506   3.621 -0.2585  0.7037 -0.1159
    7en-    CQM  242   0.225   1.460   3.711  0.0665  0.8364  0.6342
    7en-    CQM  243   0.250   1.453   3.849 -0.1364 -0.0420  0.1119
    7en-    CQM  244   0.144   1.407   3.933 -0.0079  1.2482  0.6610
    7en-    HQM  245   0.058   1.369   3.880  0.4290 -0.1441  0.9212
    7en-    HQM  246   0.125   1.437   3.675  1.1321  1.0920 -2.6006
    7en-    HQM  247   0.297   1.512   3.516 -0.9434 -3.5164 -0.2777
    7en-    HQM  248   0.524   1.580   3.606  0.9534 -1.5384 -0.2920
    7en-    HQM  249   0.572   1.573   3.854  0.9856 -2.6894  0.9820
    7en-    HQM  250   0.500   1.510   4.077  0.9098 -0.7931 -2.2059
    7en-    CQM  251   0.314   1.436   4.261  0.1910  0.0424 -0.1457
    7en-    HQM  252   0.407   1.468   4.306  1.6774 -1.6320 -1.9334
    8en-    CQM  253   0.371   1.004   4.289  0.5431  0.2445 -0.2257
    8en-    CQM  254   0.271   1.005   4.384 -0.3987  0.2265  0.8022
    8en-    CQM  255   0.296   0.939   4.508 -0.5051  0.1802 -0.0253
    8en-    CQM  256   0.189   0.931   4.600  0.2524 -0.1877 -0.0256
    8en-    CQM  257   0.208   0.858   4.719  0.4229  0.0494  0.4395
    8en-    CQM  258   0.324   0.794   4.743 -0.4501 -0.6845  1.0188
    8en-    CQM  259   0.427   0.801   4.647  0.7515 -0.0129  1.0875
    8en-    CQM  260   0.417   0.871   4.527  0.1137  0.6284 -0.6908
    8en-    CQM  261   0.519   0.873   4.432 -0.3592 -0.9684 -0.2170
    8en-    CQM  262   0.495   0.937   4.309 -0.3094 -0.5903 -0.0242
    8en-    CQM  263   0.356   1.073   4.168 -0.4329  0.1115  0.2438
    8en-    HQM  264   0.176   1.056   4.376 -0.1319  0.4910 -0.8725
    8en-    HQM  265   0.087   0.956   4.573 -0.4541 -1.3419  1.4704
    8en-    HQM  266   0.121   0.840   4.783 -0.7897 -1.5658 -1.6161
    8en-    HQM  267   0.338   0.739   4.836 -2.6870 -2.1368  0.5428
    8en-    HQM  268   0.527   0.769   4.674 -0.1147 -1.4754  2.7504
    8en-    HQM  269   0.613   0.819   4.447  1.1779  1.1123 -2.0006
    8en-    HQM  270   0.264   1.127   4.147 -0.2544  0.9066  1.4859
    8en-    CQM  271   0.446   1.070   4.067  0.3082 -0.5361 -0.5002
    8en-    CQM  272   0.560   0.997   4.087  0.2858  1.0211  0.4853
    8en-    CQM  273   0.664   0.995   3.990 -0.0608  0.3874 -0.1528
    8en-    CQM  274   0.643   1.063   3.871  0.1829 -0.2146  0.2997
    8en-    CQM  275   0.743   1.064   3.771 -0.2115 -0.7785  0.4345
    8en-    CQM  276   0.723   1.141   3.657 -0.1371 -0.0066  0.0555
    8en-    CQM  277   0.598   1.207   3.628 -0.0352  0.0943  0.5340
    8en-    CQM  278   0.497   1.197   3.723  0.3676  0.5599 -0.1195
    8en-    CQM  279   0.515   1.124   3.840 -0.7145 -0.2066 -0.3056
    8en-    CQM  280   0.420   1.132   3.942  0.0749 -0.0178  0.0289
    8en-    HQM  281   0.320   1.173   3.928  0.8444  1.6239 -0.6956
    8en-    HQM  282   0.411   1.261   3.706 -0.1883  0.0705  0.7871
    8en-    HQM  283   0.584   1.271   3.541  1.1331 -0.8954 -0.3956
    8en-    HQM  284   0.805   1.140   3.586 -0.1242  0.6230  0.0566
    8en-    HQM  285   0.831   1.004   3.791  0.1149 -0.2290  0.6635
    8en-    HQM  286   0.758   0.944   4.003 -0.0367 -0.0708 -1.9732
    8en-    CQM  287   0.589   0.932   4.206  0.0645  0.2414 -0.3751
    8en-    HQM  288   0.686   0.887   4.223  1.3496  2.8395 -0.5281
    9en-    CQM  289   0.128   1.645   5.732  0.1487  0.3224 -0.3944
    9en-    CQM  290   0.018   1.597   5.814  0.2228  0.2186  0.0111
    9en-    CQM  291   0.038   1.593   5.955 -0.3902 -0.8538  0.9499
    9en-    CQM  292  -0.066   1.551   6.038 -0.3329 -0.0364  0.8898
    9en-    CQM  293  -0.042   1.531   6.179 -0.1704  0.1804  0.5419
    9en-    CQM  294   0.083   1.551   6.229 -0.2400  0.3115 -0.0271
    9en-    CQM  295   0.181   1.613   6.148  0.4921  0.7820  0.2102
    9en-    CQM  296   0.159   1.631   6.010  0.1337 -0.1842 -0.1528
    9en-    CQM  297   0.263   1.674   5.925 -0.2139  0.3345 -0.4503
    9en-    CQM  298   0.247   1.681   5.788 -0.4839  0.3989  0.3572
    9en-    CQM  299   0.101   1.663   5.594  0.0050  0.1265  0.1070
    9en-    HQM  300  -0.076   1.573   5.765  0.0025  2.3958 -0.6704
    9en-    HQM  301  -0.164   1.529   5.996  0.3594 -0.8048 -0.3707
    9en-    HQM  302  -0.125   1.495   6.239  0.7927  1.5528  2.7539
    9en-    HQM  303   0.106   1.548   6.335  1.4195  2.2310 -0.3041
    9en-    HQM  304   0.282   1.627   6.186  1.4839 -1.3982 -1.5768
    9en-    HQM  305   0.361   1.691   5.969 -0.4846  0.0600  0.2651
    9en-    HQM  306   0.003   1.631   5.561  0.2782 -0.1514 -0.4364
    9en-    CQM  307   0.200   1.720   5.509 -0.6411  0.7100  0.2170
    9en-    CQM  308   0.325   1.753   5.564  0.5564 -0.5755 -0.8324
    9en-    CQM  309   0.424   1.804   5.477 -0.6617 -0.2758 -1.0340
    9en-    CQM  310   0.399   1.821   5.339 -0.9816  0.1056  0.0662
    9en-    CQM  311   0.497   1.877   5.249  0.4810 -0.4077 -0.2795
    9en-    CQM  312   0.471   1.887   5.111 -0.8097  0.1549  0.2804
    9en-    CQM  313   0.348   1.848   5.064  0.0344  0.3359  0.0005
    9en-    CQM  314   0.252   1.800   5.152  0.0151  0.2731 -0.4169
    9en-    CQM  315   0.278   1.781   5.291 -0.3007 -0.1088 -0.2913
    9en-    CQM  316   0.179   1.725   5.372  0.0329 -0.0745 -0.2747
    9en-    HQM  317   0.093   1.678   5.325  0.4974  1.1999 -2.5207
    9en-    HQM  318   0.157   1.768   5.110  0.1221  0.7551 -1.0326
    9en-    HQM  319   0.326   1.852   4.958 -1.4706 -1.8325  0.1951
    9en-    HQM  320   0.541   1.939   5.046 -0.5445  0.8904  1.1425
    9en-    HQM  321   0.594   1.894   5.295  1.0606  1.3038 -2.0372
    9en-    HQM  322   0.519   1.832   5.521 -0.8566 -2.5551  0.9609
    9en-    CQM  323   0.348   1.729   5.698  0.1383  0.5269  0.2974
    9en-    HQM  324   0.442   1.759   5.745  0.7664 -1.8966  0.6578
   10en-    CQM  325   0.402   1.312   5.751 -0.2311  0.0570  0.4276
   10en-    CQM  326   0.296   1.302   5.844  0.8209 -0.1880  0.4002
   10en-    CQM  327   0.319   1.244   5.971 -1.0051 -0.0628  0.2870
   10en-    CQM  328   0.222   1.242   6.074 -1.0742 -1.1001  0.3172
   10en-    CQM  329   0.248   1.177   6.194 -0.4958  0.0633  0.2472
   10en-    CQM  330   0.374   1.118   6.215  0.1094 -0.0828 -0.3160
   10en-    CQM  331   0.474   1.122   6.116 -0.9461  0.3235  0.0025
   10en-    CQM  332   0.446   1.187   5.997  0.2468  0.3700  0.7419
   10en-    CQM  333   0.543   1.181   5.893 -0.2443 -0.2313 -0.1936
   10en-    CQM  334   0.527   1.246   5.771 -0.0729  0.9768  0.1664
   10en-    CQM  335   0.381   1.391   5.633  0.0144 -0.4984  0.2384
   10en-    HQM  336   0.200   1.340   5.812  1.4102  0.7028 -0.3327
   10en-    HQM  337   0.130   1.300   6.066 -0.7753 -0.6611  0.0846
   10en-    HQM  338   0.181   1.188   6.279  0.6346 -1.5776  1.3702
   10en-    HQM  339   0.391   1.075   6.314  0.9627 -0.3273 -0.5636
   10en-    HQM  340   0.563   1.060   6.115  0.3830  2.1713  0.2654
   10en-    HQM  341   0.630   1.119   5.912 -0.7569 -1.4576 -1.7310
   10en-    HQM  342   0.296   1.459   5.634  1.6536  1.5609  1.4071
   10en-    CQM  343   0.477   1.390   5.529 -0.2295  0.5246  0.2614
   10en-    CQM  344   0.597   1.320   5.549  0.6792 -0.0708 -0.7370
   10en-    CQM  345   0.690   1.322   5.447  0.5008 -0.5906 -0.9945
   10en-    CQM  346   0.660   1.373   5.322  0.1566 -0.5780 -0.2112
   10en-    CQM  347   0.762   1.379   5.226 -0.6266  0.2664 -0.1214
   10en-    CQM  348   0.744   1.437   5.102 -0.0096  0.2577  0.4065
   10en-    CQM  349   0.625   1.506   5.077  1.0058  0.3174 -0.6561
   10en-    CQM  350   0.524   1.503   5.177 -0.5957 -0.5336 -0.1168
   10en-    CQM  351   0.546   1.447   5.302  0.0696  0.2123  0.4995
   10en-    CQM  352   0.450   1.456   5.409 -0.2681  0.0175 -0.1923
   10en-    HQM  353   0.354   1.501   5.389 -0.1870  0.7747  1.0781
   10en-    HQM  354   0.436   1.566   5.162 -1.0112 -1.2650 -0.8159
   10en-    HQM  355   0.614   1.566   4.988  0.8203  0.2179 -0.7019
   10en-    HQM  356   0.831   1.440   5.036 -0.4611  2.7020 -0.1218
   10en-    HQM  357   0.852   1.322   5.248 -1.0455 -0.4575 -0.2517
   10en-    HQM  358   0.785   1.274   5.468  0.3474 -2.3584 -4.0765
   10en-    CQM  359   0.625   1.254   5.670 -0.1454  0.4662  0.1118
   10en-    HQM  360   0.717   1.202   5.692 -0.6332 -0.1358  0.7564
   11en-    CQM  361   3.137   1.089   0.072  0.0902 -0.1768 -0.3194
   11en-    CQM  362   3.033   1.045   0.159  0.0049  0.5084 -0.4182
   11en-    CQM  363   3.055   1.035   0.299  0.6365 -0.1899  0.3307
   11en-    CQM  364   2.959   0.976   0.378 -0.1114 -0.6047 -0.3014
   11en-    CQM  365   2.980   0.963   0.516 -1.0086  0.2140 -0.0802
   11en-    CQM  366   3.107   1.005   0.574  0.3287 -0.8467  0.8572
   11en-    CQM  367   3.208   1.064   0.489  0.4296 -0.9630  0.2657
   11en-    CQM  368   3.176   1.077   0.355 -0.0123  0.3590  0.0396
   11en-    CQM  369   3.270   1.134   0.274 -0.1855 -0.2281  0.4554
   11en-    CQM  370   3.257   1.143   0.133 -0.1700 -0.3320 -0.2721
   11en-    CQM  371   3.119   1.091  -0.067 -0.1831  0.1859 -0.0143
   11en-    HQM  372   2.935   1.015   0.122 -0.1606  0.4132  0.0823
   11en-    HQM  373   2.870   0.931   0.335 -0.2307 -0.7677  0.1223
   11en-    HQM  374   2.905   0.908   0.572 -0.5236 -0.2554  0.1136
   11en-    HQM  375   3.124   0.996   0.681 -0.3385  3.7054  1.4596
   11en-    HQM  376   3.302   1.099   0.529  0.3241  0.5442 -0.7784
   11en-    HQM  377   3.369   1.163   0.309  0.9356 -0.8458 -2.0412
   11en-    HQM  378   3.022   1.070  -0.111 -0.5562  1.0361  0.3962
   11en-    CQM  379   3.221   1.148  -0.148  0.8817 -0.8221 -0.3056
   11en-    CQM  380   3.331   1.208  -0.084 -0.9614 -0.8052 -0.7281
   11en-    CQM  381   3.427   1.271  -0.161  0.3117 -0.3983  0.5495
   11en-    CQM  382   3.414   1.277  -0.301 -0.3542  0.3042 -0.7024
   11en-    CQM  383   3.515   1.340  -0.378 -0.2932  0.0873  0.2567
   11en-    CQM  384   3.510   1.336  -0.517  0.1919  0.1351 -0.3029
   11en-    CQM  385   3.395   1.283  -0.574 -0.5625 -0.5637  0.5540
   11en-    CQM  386   3.295   1.221  -0.503  0.0308 -0.1247  0.5427
   11en-    CQM  387   3.304   1.219  -0.364  0.5833  0.5074  0.2301
   11en-    CQM  388   3.205   1.150  -0.289 -0.4427 -0.9590  0.1764
   11en-    HQM  389   3.116   1.108  -0.334  0.2910 -1.2664 -1.0043
   11en-    HQM  390   3.218   1.169  -0.559  0.7752 -0.6642  0.0167
   11en-    HQM  391   3.387   1.284  -0.682 -2.3234 -0.4543  0.6759
   11en-    HQM  392   3.590   1.378  -0.578 -0.2731 -0.0449 -1.0507
   11en-    HQM  393   3.603   1.375  -0.325 -0.0095  2.0919 -1.4665
   11en-    HQM  394   3.512   1.324  -0.119  1.8439  1.3045 -4.4219
   11en-    CQM  395   3.356   1.198   0.051  0.1641  0.3018  0.1881
   11en-    HQM  396   3.441   1.250   0.093  2.8201 -4.3826  0.9466
   12en-    CQM  397   0.300   0.774   0.060 -0.0603 -0.1426 -0.7470
   12en-    CQM  398   0.198   0.768   0.159  0.2523  0.0309  0.1340
   12en-    CQM  399   0.222   0.704   0.283 -0.7642 -0.4244 -0.2421
   12en-    CQM  400   0.128   0.709   0.384 -0.2787  0.4048 -0.3002
   12en-    CQM  401   0.159   0.666   0.510 -0.0971  0.5778 -0.7494
   12en-    CQM  402   0.279   0.608   0.539 -0.0686 -0.1393  0.5966
   12en-    CQM  403   0.374   0.591   0.435 -0.0103 -0.7345  0.1023
   12en-    CQM  404   0.344   0.643   0.308 -0.0054  0.1702 -0.3418
   12en-    CQM  405   0.437   0.631   0.204  0.0605  0.0745 -0.2913
   12en-    CQM  406   0.419   0.697   0.074 -0.0991 -0.8445  0.0574
   12en-    CQM  407   0.279   0.850  -0.057  0.6126 -0.6776 -0.6854
   12en-    HQM  408   0.103   0.820   0.146  1.0048  1.7871  1.4094
   12en-    HQM  409   0.035   0.763   0.373  0.6715  2.7535  2.4724
   12en-    HQM  410   0.077   0.670   0.582  0.9319 -0.9749  0.5581
   12en-    HQM  411   0.293   0.558   0.634  3.5162 -1.9129 -0.7419
   12en-    HQM  412   0.471   0.545   0.452 -0.6240 -2.3670 -0.6837
   12en-    HQM  413   0.534   0.585   0.221 -0.0042  0.5257  1.3524
   12en-    HQM  414   0.184   0.902  -0.056  1.2101  0.4321  1.0682
   12en-    CQM  415   0.372   0.851  -0.163  0.4548 -0.4625 -0.8970
   12en-    CQM  416   0.485   0.776  -0.148  0.6139 -0.1021 -0.3545
   12en-    CQM  417   0.587   0.763  -0.247  0.1986 -0.5244 -0.5133
   12en-    CQM  418   0.577   0.843  -0.361  0.0100 -0.2636  0.5989
   12en-    CQM  419   0.673   0.839  -0.454 -0.1111 -0.4300 -0.0364
   12en-    CQM  420   0.666   0.914  -0.567  0.4966 -0.2346 -0.2397
   12en-    CQM  421   0.544   0.979  -0.599 -0.2879  0.3835  0.6806
   12en-    CQM  422   0.440   0.979  -0.505  0.1477  0.1834 -0.9274
   12en-    CQM  423   0.456   0.916  -0.386  0.0358 -0.0652 -0.4558
   12en-    CQM  424   0.357   0.922  -0.287  0.4045  0.4045  0.6745
   12en-    HQM  425   0.266   0.979  -0.298  1.5254  1.4706 -3.9273
   12en-    HQM  426   0.349   1.035  -0.522  1.3565  2.6792  0.5874
   12en-    HQM  427   0.539   1.034  -0.693  3.9413 -0.7402 -0.2972
   12en-    HQM  428   0.749   0.926  -0.635  1.3610  3.6677  1.3722
   12en-    HQM  429   0.765   0.786  -0.432 -0.4819 -1.6212 -1.2691
   12en-    HQM  430   0.671   0.698  -0.222 -0.6984 -1.2355  0.6829
   12en-    CQM  431   0.510   0.709  -0.030 -0.3588  0.1661  0.4362
   12en-    HQM  432   0.605   0.658  -0.018 -0.3019  0.6318  1.9983
   13en-    CQM  433   0.087   1.414   1.486  0.9081 -0.3378 -0.2485
   13en-    CQM  434  -0.018   1.362   1.570 -0.2364 -0.6715  0.2445
   13en-    CQM  435   0.002   1.347   1.712  0.1536 -0.5461 -0.4221
   13en-    CQM  436  -0.095   1.281   1.793 -0.6938 -0.4169  0.2892
   13en-    CQM  437  -0.070   1.263   1.926 -0.2518  0.4215 -0.4253
   13en-    CQM  438   0.053   1.303   1.983  0.0782 -0.1971 -0.5119
   13en-    CQM  439   0.149   1.364   1.907  0.1648 -0.0417 -0.0838
   13en-    CQM  440   0.121   1.383   1.771 -0.2604  0.0193  0.2472
   13en-    CQM  441   0.220   1.438   1.693  0.4224 -0.3142  0.6626
   13en-    CQM  442   0.203   1.453   1.550 -0.0266  0.2104  0.3712
   13en-    CQM  443   0.063   1.422   1.348  0.0373  0.7024 -0.2202
   13en-    HQM  444  -0.108   1.320   1.527 -1.1199 -0.8531  2.2034
   13en-    HQM  445  -0.189   1.245   1.752 -1.1061  3.0499 -2.0355
   13en-    HQM  446  -0.151   1.228   1.990 -0.6780  1.3328 -0.4573
   13en-    HQM  447   0.077   1.284   2.087  0.2464  0.8554 -0.3492
   13en-    HQM  448   0.245   1.380   1.957  0.3503 -0.5336 -0.2761
   13en-    HQM  449   0.309   1.468   1.746 -0.7468  2.5202  1.1384
   13en-    HQM  450  -0.030   1.388   1.304  0.0429  0.2383  0.1351
   13en-    CQM  451   0.159   1.481   1.266 -0.4274 -0.4293  0.0938
   13en-    CQM  452   0.285   1.513   1.324  0.1969 -0.2323  1.3055
   13en-    CQM  453   0.381   1.574   1.243  0.4753  0.0825 -0.0740
   13en-    CQM  454   0.355   1.590   1.107  0.3427  0.0956  0.4691
   13en-    CQM  455   0.453   1.644   1.020  0.2450 -0.0189 -0.0800
   13en-    CQM  456   0.434   1.664   0.886 -0.5019 -1.4040  0.1608
   13en-    CQM  457   0.301   1.637   0.832 -0.2225  0.2907 -0.2197
   13en-    CQM  458   0.199   1.586   0.914  0.3630  0.1036 -0.5301
   13en-    CQM  459   0.232   1.554   1.049 -0.4457 -0.5317 -0.1810
   13en-    CQM  460   0.130   1.498   1.131  0.2279 -0.0839  0.2516
   13en-    HQM  461   0.033   1.482   1.084  0.4246  0.7505 -0.4584
   13en-    HQM  462   0.097   1.576   0.876  0.6475 -1.7892 -0.8647
   13en-    HQM  463   0.274   1.661   0.730 -1.3887 -1.0772 -0.2513
   13en-    HQM  464   0.505   1.710   0.818 -1.6592  0.7912  0.3769
   13en-    HQM  465   0.549   1.671   1.064  0.5093 -0.0004 -0.6535
   13en-    HQM  466   0.482   1.597   1.277  1.4850  1.0290 -3.5020
   13en-    CQM  467   0.302   1.503   1.462 -0.0267 -0.7809 -0.0856
   13en-    HQM  468   0.399   1.526   1.505 -0.1651 -1.9472  0.8833
   14en-    CQM  469   0.354   1.084   1.520 -0.8552  0.5423 -0.0844
   14en-    CQM  470   0.263   1.086   1.627 -0.1743 -0.0433  0.2336
   14en-    CQM  471   0.290   1.016   1.745  0.0001  0.3434  0.2823
   14en-    CQM  472   0.192   1.009   1.848  0.3997 -0.3145  0.3381
   14en-    CQM  473   0.213   0.936   1.969  0.1538  0.2238 -0.3459
   14en-    CQM  474   0.346   0.880   1.983 -0.3776 -0.1126 -0.3511
   14en-    CQM  475   0.445   0.895   1.886 -0.0059 -0.3143 -0.5658
   14en-    CQM  476   0.419   0.960   1.767  0.0016 -0.0185  0.3062
   14en-    CQM  477   0.509   0.951   1.653  0.0905 -0.3209 -0.1027
   14en-    CQM  478   0.476   1.013   1.535  0.1302 -0.1581  0.1697
   14en-    CQM  479   0.324   1.155   1.399  0.5408  0.2770 -0.3069
   14en-    HQM  480   0.170   1.143   1.620 -0.2623  0.0724  2.1221
   14en-    HQM  481   0.095   1.056   1.836  0.8954  1.0250  1.5210
   14en-    HQM  482   0.129   0.925   2.036 -0.2712 -1.6512 -1.1406
   14en-    HQM  483   0.369   0.820   2.071 -0.1546  1.4424  0.6772
   14en-    HQM  484   0.546   0.857   1.901  0.2794  0.6512  0.0279
   14en-    HQM  485   0.610   0.915   1.668  0.5931  0.2348 -1.9678
   14en-    HQM  486   0.229   1.204   1.379  0.3541 -0.1281 -0.4424
   14en-    CQM  487   0.420   1.150   1.298  0.3779  0.7516 -0.4497
   14en-    CQM  488   0.542   1.082   1.312 -0.0282  0.0913  0.1516
   14en-    CQM  489   0.640   1.085   1.207  0.3500  0.0920 -0.3232
   14en-    CQM  490   0.617   1.159   1.089 -0.0820 -0.6477 -0.0052
   14en-    CQM  491   0.711   1.162   0.985  0.2935 -1.3797 -0.5657
   14en-    CQM  492   0.680   1.231   0.869  0.8113  0.8090  0.3332
   14en-    CQM  493   0.558   1.304   0.860 -0.3048  0.2205 -1.2563
   14en-    CQM  494   0.460   1.294   0.961  0.2481  0.1104 -1.2420
   14en-    CQM  495   0.488   1.221   1.075  0.1150 -0.2749 -0.7885
   14en-    CQM  496   0.390   1.211   1.175 -0.4192  0.2993  0.1253
   14en-    HQM  497   0.297   1.264   1.157 -0.0478  0.5788 -1.0105
   14en-    HQM  498   0.364   1.342   0.950 -0.0102  0.4377  1.9533
   14en-    HQM  499   0.528   1.356   0.770  0.7948 -0.4427 -2.0071
   14en-    HQM  500   0.752   1.245   0.788  1.0069 -0.8339  0.2237
   14en-    HQM  501   0.801   1.100   0.992  1.5521  0.6960  3.6816
   14en-    HQM  502   0.738   1.045   1.234 -0.4029 -1.0122  0.7998
   14en-    CQM  503   0.569   1.018   1.434 -0.2201  0.4925 -0.2367
   14en-    HQM  504   0.661   0.961   1.444 -1.5412 -1.7990 -0.7884
   15en-    CQM  505   0.092   1.766   2.884  0.0454 -0.5663  0.3513
   15en-    CQM  506  -0.012   1.718   2.967  0.1204  0.8670  0.3477
   15en-    CQM  507   0.010   1.693   3.101 -0.0031 -1.1283 -0.5918
   15en-    CQM  508  -0.084   1.630   3.175  0.1199  0.3856  0.1482
   15en-    CQM  509  -0.065   1.613   3.313 -0.2992 -0.5390  0.4281
   15en-    CQM  510   0.055   1.658   3.377 -0.3926 -0.3351 -0.0623
   15en-    CQM  511   0.160   1.706   3.298 -0.2171 -0.2093  0.2233
   15en-    CQM  512   0.131   1.734   3.161 -0.1831  0.0990  0.2553
   15en-    CQM  513   0.233   1.798   3.080 -0.5228  1.3806 -0.4973
   15en-    CQM  514   0.215   1.809   2.942 -0.8728 -0.1415  0.8734
   15en-    CQM  515   0.086   1.768   2.743  0.0081  0.3908  0.1197
   15en-    HQM  516  -0.105   1.684   2.924  0.4506 -3.4420  2.7392
   15en-    HQM  517  -0.172   1.598   3.120  0.9889 -0.2864 -0.9010
   15en-    HQM  518  -0.139   1.547   3.358  1.0293 -1.0287  1.9312
   15en-    HQM  519   0.073   1.625   3.479 -0.5820 -0.5127 -0.0865
   15en-    HQM  520   0.259   1.716   3.342  1.7362 -5.5555 -2.5393
   15en-    HQM  521   0.326   1.827   3.127  0.3561  1.3933 -2.2285
   15en-    HQM  522  -0.011   1.750   2.699  0.6441 -2.3667 -0.2209
   15en-    CQM  523   0.184   1.821   2.665 -0.1253 -0.3146  0.7375
   15en-    CQM  524   0.303   1.869   2.724  0.0896 -0.1193 -0.3641
   15en-    CQM  525   0.410   1.911   2.641  0.4155  0.3734  0.8438
   15en-    CQM  526   0.393   1.924   2.505 -0.4338 -0.2665 -0.0286
   15en-    CQM  527   0.493   1.981   2.432 -0.4952 -0.4124  0.0281
   15en-    CQM  528   0.480   2.002   2.295  0.9376 -0.4717 -0.2741
   15en-    CQM  529   0.366   1.968   2.227  0.6469  1.3302 -0.1910
   15en-    CQM  530   0.261   1.910   2.306 -0.3608 -1.1139 -0.1116
   15en-    CQM  531   0.272   1.886   2.444  0.2796  0.0793  0.2599
   15en-    CQM  532   0.164   1.833   2.524 -0.3961 -0.6007  0.4159
   15en-    HQM  533   0.073   1.808   2.471 -1.7561  1.0310  1.9053
   15en-    HQM  534   0.169   1.884   2.254 -1.0519 -0.9021  0.9987
   15en-    HQM  535   0.356   2.003   2.125 -1.9092 -0.9212 -0.7718
   15en-    HQM  536   0.565   2.046   2.244 -0.9346  2.1388 -1.2931
   15en-    HQM  537   0.583   2.016   2.481  1.0946 -3.0716 -0.8556
   15en-    HQM  538   0.505   1.940   2.683  1.5952 -0.8200 -0.9276
   15en-    CQM  539   0.320   1.862   2.864 -0.1021 -0.2404 -0.3407
   15en-    HQM  540   0.406   1.909   2.910 -2.8583  3.9233  0.8956
   16en-    CQM  541   0.390   1.427   2.925  0.4235  0.2400 -0.2117
   16en-    CQM  542   0.289   1.427   3.020 -0.4566 -0.0166 -0.1189
   16en-    CQM  543   0.303   1.355   3.138  0.4374 -0.5314 -1.0808
   16en-    CQM  544   0.195   1.353   3.236  0.5420 -0.4676  0.7033
   16en-    CQM  545   0.202   1.280   3.354 -0.0483  0.6187  0.1672
   16en-    CQM  546   0.318   1.200   3.380 -0.1043 -0.3821 -0.3365
   16en-    CQM  547   0.428   1.211   3.291  0.1079  0.9232  0.0867
   16en-    CQM  548   0.415   1.281   3.167 -0.5129  0.0185  0.3726
   16en-    CQM  549   0.522   1.281   3.075  0.0830 -0.1299 -0.5494
   16en-    CQM  550   0.507   1.353   2.951 -0.4124 -0.4191 -1.0393
   16en-    CQM  551   0.376   1.493   2.801 -0.4902  0.6287  0.0105
   16en-    HQM  552   0.195   1.471   2.990  0.9147  1.5690 -2.2683
   16en-    HQM  553   0.103   1.407   3.217  1.5527  0.9883 -0.2745
   16en-    HQM  554   0.124   1.279   3.430  1.1344  1.1776  1.4062
   16en-    HQM  555   0.329   1.135   3.466  2.0567  0.6459  0.2160
   16en-    HQM  556   0.515   1.147   3.304  1.6886  2.3988 -2.7594
   16en-    HQM  557   0.618   1.234   3.093  0.4118  0.7885  0.1352
   16en-    HQM  558   0.289   1.553   2.776 -1.3302 -0.4673  0.2506
   16en-    CQM  559   0.479   1.483   2.705  0.9415  0.0996  0.0861
   16en-    CQM  560   0.602   1.417   2.738 -0.2626 -0.1939  0.0525
   16en-    CQM  561   0.711   1.427   2.649  0.2963  0.0701 -0.2983
   16en-    CQM  562   0.687   1.495   2.523 -0.8742 -0.0621 -0.5240
   16en-    CQM  563   0.787   1.490   2.422 -0.7505  0.4157 -0.6840
   16en-    CQM  564   0.760   1.541   2.297  0.0596  0.4355 -0.3278
   16en-    CQM  565   0.636   1.603   2.268  0.6091 -0.2059 -0.0134
   16en-    CQM  566   0.538   1.606   2.368  0.3265 -0.4187 -0.2852
   16en-    CQM  567   0.561   1.551   2.494  0.0758  0.4853 -0.1522
   16en-    CQM  568   0.457   1.548   2.583 -0.5388 -0.2587  0.0414
   16en-    HQM  569   0.362   1.599   2.566  0.7600  1.8286 -1.1320
   16en-    HQM  570   0.442   1.649   2.342 -0.0218 -0.8421  0.2655
   16en-    HQM  571   0.614   1.647   2.172  0.5656 -0.5663 -0.1711
   16en-    HQM  572   0.850   1.546   2.237 -0.0852 -0.5384 -0.6416
   16en-    HQM  573   0.883   1.444   2.441 -1.7738 -0.9198  1.4275
   16en-    HQM  574   0.802   1.371   2.670 -0.2190 -0.7981 -0.3617
   16en-    CQM  575   0.616   1.350   2.860  0.2138  0.4296  0.0009
   16en-    HQM  576   0.711   1.306   2.887 -1.6951 -3.7545  0.4620
   17en-    CQM  577   0.157   2.088   4.300  0.2039  0.4501  0.1419
   17en-    CQM  578   0.053   2.045   4.383  0.1253 -0.1504  0.0965
   17en-    CQM  579   0.073   2.033   4.519  0.8532  0.1928 -0.3555
   17en-    CQM  580  -0.030   1.988   4.603 -0.1074  0.5558  0.4033
   17en-    CQM  581  -0.004   1.968   4.742 -0.8024  0.0884  0.4853
   17en-    CQM  582   0.116   2.014   4.800  0.4798  0.4974  0.1150
   17en-    CQM  583   0.220   2.055   4.715 -0.2607  0.0869  0.1613
   17en-    CQM  584   0.197   2.072   4.579 -0.3363 -0.2527 -0.0311
   17en-    CQM  585   0.301   2.117   4.494 -0.0182 -0.1769 -0.6889
   17en-    CQM  586   0.282   2.131   4.358  0.6705 -0.1687 -0.8066
   17en-    CQM  587   0.134   2.098   4.163 -0.0562  0.3801  0.5290
   17en-    HQM  588  -0.038   2.022   4.329  0.1507 -0.7380  0.2993
   17en-    HQM  589  -0.126   1.956   4.563 -0.0167 -1.6207  1.8217
   17en-    HQM  590  -0.087   1.935   4.803 -0.4513  2.0217  2.1011
   17en-    HQM  591   0.134   2.016   4.907 -0.0513  0.6644  0.2012
   17en-    HQM  592   0.319   2.076   4.754 -0.3457  0.8273  0.0039
   17en-    HQM  593   0.396   2.137   4.542 -0.1147 -3.0016  0.7645
   17en-    HQM  594   0.037   2.071   4.124  1.2775 -0.8597 -2.0581
   17en-    CQM  595   0.243   2.142   4.076 -0.2696  0.0670 -0.5085
   17en-    CQM  596   0.365   2.177   4.130  0.4381  0.1045  0.9080
   17en-    CQM  597   0.461   2.233   4.048 -0.2793  0.9179  0.2338
   17en-    CQM  598   0.441   2.247   3.910 -0.5714 -0.2276 -0.0401
   17en-    CQM  599   0.539   2.298   3.830 -0.3363  0.0169 -0.6720
   17en-    CQM  600   0.520   2.324   3.692 -0.0056 -0.7611  0.1106
   17en-    CQM  601   0.397   2.281   3.633 -0.6917 -0.1324 -0.0544
   17en-    CQM  602   0.302   2.230   3.716 -0.3832  0.3323  0.6596
   17en-    CQM  603   0.322   2.214   3.855 -0.2817  0.0715  0.1824
   17en-    CQM  604   0.221   2.159   3.942 -0.3789 -0.2745 -0.2714
   17en-    HQM  605   0.125   2.128   3.902 -0.9139 -1.7100  2.0033
   17en-    HQM  606   0.201   2.203   3.685 -0.5387  2.8066 -1.1741
   17en-    HQM  607   0.386   2.294   3.526  1.0734  1.0380 -0.1211
   17en-    HQM  608   0.603   2.362   3.633  1.2651 -2.6038  0.6668
   17en-    HQM  609   0.633   2.324   3.879 -0.8830 -2.4839  1.7908
   17en-    HQM  610   0.555   2.263   4.094 -2.5669  1.1756  5.0427
   17en-    CQM  611   0.384   2.173   4.271 -0.2317 -0.0799  0.5665
   17en-    HQM  612   0.475   2.206   4.321 -1.3119 -0.8735  3.1503
   18en-    CQM  613   0.429   1.763   4.318 -0.8938  0.4514 -0.8307
   18en-    CQM  614   0.333   1.776   4.420  0.1156  0.6586 -0.0351
   18en-    CQM  615   0.351   1.702   4.539 -0.4820  0.2750 -0.0581
   18en-    CQM  616   0.243   1.696   4.631 -0.4169  0.4273 -0.7899
   18en-    CQM  617   0.262   1.636   4.761 -0.4422  0.0944  0.7870
   18en-    CQM  618   0.391   1.586   4.795  0.3156  0.2164  0.0527
   18en-    CQM  619   0.496   1.588   4.695 -0.1870  0.0123 -0.1375
   18en-    CQM  620   0.478   1.640   4.564  0.7449  0.8080 -0.3249
   18en-    CQM  621   0.576   1.633   4.465  0.0996  0.3455  0.1513
   18en-    CQM  622   0.554   1.695   4.336  0.3366 -0.3463 -0.1865
   18en-    CQM  623   0.406   1.834   4.193 -0.5825  0.4787 -0.1186
   18en-    HQM  624   0.244   1.835   4.400  0.0182  0.5931  0.1962
   18en-    HQM  625   0.153   1.750   4.606 -1.3397 -1.0677 -0.7632
   18en-    HQM  626   0.178   1.635   4.830 -0.5425 -0.1009  0.6629
   18en-    HQM  627   0.406   1.550   4.896 -0.4707  0.1687  0.1533
   18en-    HQM  628   0.580   1.525   4.723 -0.8122 -1.3491 -1.2560
   18en-    HQM  629   0.665   1.570   4.475  0.6488  1.2515  1.1141
   18en-    HQM  630   0.320   1.898   4.180  0.5435  2.4176  1.6064
   18en-    CQM  631   0.506   1.821   4.094 -0.3155 -0.1060  0.3177
   18en-    CQM  632   0.626   1.753   4.117 -0.5641  0.6316  0.0985
   18en-    CQM  633   0.728   1.761   4.023 -0.6079  0.2153 -0.2690
   18en-    CQM  634   0.709   1.823   3.897  0.3900 -0.0959  0.1133
   18en-    CQM  635   0.814   1.828   3.807  0.7196  0.3628 -0.0417
   18en-    CQM  636   0.793   1.895   3.685 -0.3609 -0.2109 -0.3987
   18en-    CQM  637   0.668   1.942   3.647  0.7274 -0.1470  0.1511
   18en-    CQM  638   0.562   1.937   3.738 -0.4987 -0.2612  0.1324
   18en-    CQM  639   0.589   1.887   3.872  0.1220  0.3574  0.4679
   18en-    CQM  640   0.489   1.889   3.977  0.3395 -0.2113  0.4690
   18en-    HQM  641   0.394   1.940   3.967  0.4878 -0.0093  0.0573
   18en-    HQM  642   0.467   1.985   3.717  0.5843  2.3983  1.1261
   18en-    HQM  643   0.651   1.976   3.545 -2.3073 -0.4205  0.5146
   18en-    HQM  644   0.875   1.902   3.613 -0.1818 -0.3277 -0.2064
   18en-    HQM  645   0.910   1.785   3.833  0.3053 -0.4081  0.2312
   18en-    HQM  646   0.819   1.706   4.042 -0.7390 -0.5072 -1.7077
   18en-    CQM  647   0.650   1.685   4.237 -0.1201 -0.0062 -0.3116
   18en-    HQM  648   0.746   1.637   4.256 -0.3131  0.1451  1.0803
   19en-    CQM  649   0.201   2.425   5.694 -0.3388 -0.1671 -0.3701
   19en-    CQM  650   0.107   2.365   5.771  0.8468  0.0883 -0.0247
   19en-    CQM  651   0.127   2.367   5.910  1.0300  0.3744 -0.2887
   19en-    CQM  652   0.028   2.318   5.998 -0.0411 -0.0613  0.1105
   19en-    CQM  653   0.046   2.315   6.137 -0.1742  0.5980  0.9023
   19en-    CQM  654   0.166   2.362   6.189 -0.3463  0.2653  0.1354
   19en-    CQM  655   0.263   2.418   6.109  0.0939  0.6653 -0.1215
   19en-    CQM  656   0.237   2.426   5.972  0.0468  0.4750  0.7828
   19en-    CQM  657   0.334   2.488   5.891  0.7341 -0.3178  0.1262
   19en-    CQM  658   0.318   2.476   5.753  0.0831 -0.7166 -0.0744
   19en-    CQM  659   0.183   2.434   5.553  0.6022  1.0291 -0.1026
   19en-    HQM  660   0.013   2.330   5.729  1.9365 -1.3094 -1.3618
   19en-    HQM  661  -0.059   2.275   5.950 -0.1869  0.4471 -0.0926
   19en-    HQM  662  -0.035   2.284   6.202  0.3388  1.2549  1.8600
   19en-    HQM  663   0.179   2.363   6.296 -0.2205 -2.1462  0.1641
   19en-    HQM  664   0.353   2.462   6.151 -1.5507  2.4442  1.7148
   19en-    HQM  665   0.422   2.529   5.938  0.0970  0.0751  0.9963
   19en-    HQM  666   0.093   2.392   5.508  0.8555  0.9088 -0.5000
   19en-    CQM  667   0.283   2.489   5.477  0.5108  0.6319  0.0143
   19en-    CQM  668   0.403   2.534   5.533 -0.1306  0.0727 -0.5937
   19en-    CQM  669   0.506   2.587   5.451  0.5746  0.1663  0.3838
   19en-    CQM  670   0.494   2.602   5.313 -0.6079 -0.2939  0.6980
   19en-    CQM  671   0.593   2.654   5.238  0.3965  0.3212  0.4007
   19en-    CQM  672   0.573   2.673   5.097  0.1541  0.0361  0.9294
   19en-    CQM  673   0.453   2.631   5.038 -0.2075  0.0527  0.5681
   19en-    CQM  674   0.354   2.570   5.116  0.2367 -0.0474 -0.6120
   19en-    CQM  675   0.374   2.557   5.254 -0.3700 -0.8433  0.4892
   19en-    CQM  676   0.269   2.506   5.335 -0.1070 -0.2755 -0.0860
   19en-    HQM  677   0.178   2.476   5.284 -0.9065 -0.4197  1.4034
   19en-    HQM  678   0.264   2.530   5.070 -0.3299  0.6839 -0.1529
   19en-    HQM  679   0.438   2.649   4.932 -0.4299 -1.4085  0.3282
   19en-    HQM  680   0.642   2.727   5.033 -1.0817  0.6908  0.1212
   19en-    HQM  681   0.681   2.703   5.279  0.1249  1.5029 -0.3916
   19en-    HQM  682   0.602   2.614   5.495  0.9006 -1.1024  0.4820
   19en-    CQM  683   0.423   2.526   5.673 -0.0497 -0.3265  0.3238
   19en-    HQM  684   0.516   2.565   5.714 -0.9953  0.4071  1.8183
   20en-    CQM  685   0.495   2.107   5.713  0.1645  0.1184  0.7072
   20en-    CQM  686   0.404   2.106   5.818  0.0811 -0.0926  0.2670
   20en-    CQM  687   0.418   2.038   5.941 -0.0510 -0.1459  0.6198
   20en-    CQM  688   0.322   2.035   6.041  0.0013  0.1195 -0.1520
   20en-    CQM  689   0.340   1.959   6.158  0.8101  0.3000  0.1977
   20en-    CQM  690   0.457   1.882   6.166 -0.7059 -0.2554  0.5293
   20en-    CQM  691   0.557   1.884   6.069  0.0304 -0.7068 -0.6444
   20en-    CQM  692   0.540   1.969   5.958  0.2223 -0.3777  0.1484
   20en-    CQM  693   0.632   1.968   5.855  0.3633 -0.1798  0.1561
   20en-    CQM  694   0.610   2.034   5.732 -0.4623 -0.3058  0.6071
   20en-    CQM  695   0.467   2.174   5.594  0.7704 -0.3918  0.1144
   20en-    HQM  696   0.321   2.173   5.802  0.8954  0.6731 -0.8335
   20en-    HQM  697   0.231   2.095   6.034 -1.6661 -2.3272 -0.0917
   20en-    HQM  698   0.252   1.952   6.221 -0.2932  0.0656 -1.3570
   20en-    HQM  699   0.466   1.809   6.247  1.2855 -1.0535 -0.3735
   20en-    HQM  700   0.649   1.826   6.075 -0.3644 -1.2334  0.5709
   20en-    HQM  701   0.716   1.903   5.876 -0.4437 -1.5781 -0.8194
   20en-    HQM  702   0.390   2.251   5.593  0.5546 -0.6102 -0.5916
   20en-    CQM  703   0.561   2.160   5.487  0.1602  0.0250 -0.0436
   20en-    CQM  704   0.681   2.083   5.507 -0.1406 -1.1149 -0.2840
   20en-    CQM  705   0.782   2.077   5.404  0.2734  0.3662 -0.2356
   20en-    CQM  706   0.758   2.127   5.276 -0.3987  0.3055 -0.2936
   20en-    CQM  707   0.846   2.110   5.172  0.3250  0.0036  0.1450
   20en-    CQM  708   0.830   2.187   5.059 -0.9330 -0.2487 -0.7729
   20en-    CQM  709   0.720   2.272   5.042 -0.0305  0.1722 -0.5543
   20en-    CQM  710   0.620   2.278   5.142 -0.9568  0.2595  0.6865
   20en-    CQM  711   0.635   2.203   5.263 -0.1688 -0.0644 -0.5486
   20en-    CQM  712   0.537   2.219   5.360 -0.0223 -0.0260 -0.4958
   20en-    HQM  713   0.453   2.284   5.337  0.5930  0.0103 -2.7859
   20en-    HQM  714   0.533   2.341   5.125  1.4558  3.5953  0.1796
   20en-    HQM  715   0.714   2.334   4.953  0.6342 -0.6456 -1.1875
   20en-    HQM  716   0.909   2.183   4.985 -0.0289  0.9370  0.1139
   20en-    HQM  717   0.941   2.060   5.191  0.5529  0.2717 -0.2974
   20en-    HQM  718   0.871   2.017   5.422  0.2154 -0.0538 -1.2919
   20en-    CQM  719   0.705   2.022   5.633 -0.8754 -0.7247  0.5214
   20en-    HQM  720   0.798   1.970   5.651  0.2186  1.0955  0.2337
   21en-    CQM  721   0.098   1.848   0.069 -0.4028 -0.3186 -0.0555
   21en-    CQM  722  -0.002   1.796   0.153  0.9705  0.2348 -0.3998
   21en-    CQM  723   0.022   1.787   0.290 -0.5550 -0.0061 -0.0144
   21en-    CQM  724  -0.079   1.727   0.370 -0.5894  0.1835  1.1524
   21en-    CQM  725  -0.058   1.715   0.514  0.0938  0.1815  0.1614
   21en-    CQM  726   0.057   1.771   0.572 -0.7489 -0.1142 -0.3609
   21en-    CQM  727   0.153   1.830   0.488  0.5558 -0.4652 -0.2029
   21en-    CQM  728   0.139   1.836   0.348  0.4222 -0.2588  0.0410
   21en-    CQM  729   0.240   1.894   0.268  0.1589  0.1669 -0.0178
   21en-    CQM  730   0.214   1.898   0.127  0.0563 -0.0328 -0.8261
   21en-    CQM  731   0.078   1.856  -0.070  0.2356  0.4183  0.4337
   21en-    HQM  732  -0.097   1.755   0.119 -1.2872  3.3985  1.7038
   21en-    HQM  733  -0.172   1.696   0.323  0.0312  1.8955 -1.3122
   21en-    HQM  734  -0.140   1.678   0.574 -0.7662  2.1685  0.2456
   21en-    HQM  735   0.078   1.754   0.677  0.7881 -2.4245 -0.9992
   21en-    HQM  736   0.242   1.879   0.529  0.6391 -1.0821  0.3601
   21en-    HQM  737   0.334   1.931   0.308  1.1295  1.1907 -3.0936
   21en-    HQM  738  -0.014   1.819  -0.113 -0.2834  0.8429  1.1829
   21en-    CQM  739   0.177   1.918  -0.145  0.0677 -0.5317 -0.1572
   21en-    CQM  740   0.298   1.962  -0.085 -0.6972  0.3384 -0.1640
   21en-    CQM  741   0.397   2.019  -0.174 -0.1313 -0.2767  0.0649
   21en-    CQM  742   0.372   2.035  -0.311  0.4793  0.1003 -0.1481
   21en-    CQM  743   0.471   2.095  -0.386  0.2308 -0.5135 -0.2587
   21en-    CQM  744   0.454   2.110  -0.524 -0.2688  0.8535  0.4880
   21en-    CQM  745   0.329   2.076  -0.586  0.4874 -0.0539 -0.1679
   21en-    CQM  746   0.228   2.012  -0.511  0.1360 -0.5484 -0.1653
   21en-    CQM  747   0.249   1.998  -0.373  0.0568 -0.4113 -0.7624
   21en-    CQM  748   0.155   1.937  -0.286  1.1480 -0.0697  0.6078
   21en-    HQM  749   0.069   1.903  -0.343  0.7805  1.6259  0.1157
   21en-    HQM  750   0.133   1.981  -0.553 -1.3886  2.0660  1.1912
   21en-    HQM  751   0.320   2.090  -0.693  1.8141  0.9349 -0.1654
   21en-    HQM  752   0.531   2.155  -0.586  1.3897 -1.8212  0.5212
   21en-    HQM  753   0.552   2.146  -0.335  2.4342 -3.6141 -0.5013
   21en-    HQM  754   0.488   2.055  -0.127  0.5001 -1.0430 -0.5556
   21en-    CQM  755   0.315   1.951   0.051 -0.5778  0.5463 -0.0506
   21en-    HQM  756   0.407   1.995   0.089 -1.2515  1.5611  0.4334
   22en-    CQM  757   0.349   1.533   0.097  0.6613  0.0762 -0.0335
   22en-    CQM  758   0.259   1.536   0.201 -0.4830  0.0510 -0.4827
   22en-    CQM  759   0.284   1.467   0.320  0.1297 -0.9243  0.1613
   22en-    CQM  760   0.185   1.471   0.419 -0.4490  0.1578 -0.2200
   22en-    CQM  761   0.205   1.405   0.541 -0.3271  0.5480 -0.4582
   22en-    CQM  762   0.331   1.339   0.561  0.0849 -0.0546  0.0370
   22en-    CQM  763   0.422   1.321   0.455  0.1014 -0.4478  0.2846
   22en-    CQM  764   0.408   1.400   0.340 -0.4701 -0.1094  0.3038
   22en-    CQM  765   0.508   1.402   0.236 -1.0408 -0.6999  0.2438
   22en-    CQM  766   0.478   1.470   0.115  0.3781  0.1805  0.1546
   22en-    CQM  767   0.334   1.596  -0.026 -0.3415 -0.1282 -0.8463
   22en-    HQM  768   0.163   1.584   0.186 -0.0092  1.0216 -0.4400
   22en-    HQM  769   0.091   1.524   0.405 -0.8775 -0.5719 -0.1047
   22en-    HQM  770   0.130   1.408   0.619  0.3296  1.4023  0.1634
   22en-    HQM  771   0.333   1.284   0.654  1.1408 -0.3322 -0.1491
   22en-    HQM  772   0.511   1.260   0.468  1.1786  1.2564  0.9982
   22en-    HQM  773   0.607   1.361   0.255 -1.6416 -1.1788  2.4734
   22en-    HQM  774   0.237   1.642  -0.040  0.4418  1.4733 -1.1132
   22en-    CQM  775   0.430   1.603  -0.131 -0.2717  0.7754 -0.6334
   22en-    CQM  776   0.555   1.534  -0.112  0.2443  0.1896 -0.3177
   22en-    CQM  777   0.647   1.540  -0.216  0.4745 -0.6595 -0.3643
   22en-    CQM  778   0.628   1.611  -0.336  0.8031  0.4801 -0.4588
   22en-    CQM  779   0.729   1.609  -0.430  0.5431  0.0051  0.1129
   22en-    CQM  780   0.703   1.680  -0.550  0.0970  0.7895 -0.7061
   22en-    CQM  781   0.576   1.728  -0.577 -0.3137  0.6591  0.0906
   22en-    CQM  782   0.474   1.726  -0.475  0.6722 -0.0007  0.3670
   22en-    CQM  783   0.502   1.674  -0.354  0.3025  0.9353 -0.8164
   22en-    CQM  784   0.406   1.666  -0.253  0.4761 -0.3471  0.7749
   22en-    HQM  785   0.307   1.706  -0.277 -0.1295 -1.2446  1.7471
   22en-    HQM  786   0.380   1.780  -0.483  0.0839 -1.3098 -2.0546
   22en-    HQM  787   0.566   1.778  -0.672 -1.3005 -0.5578 -0.4651
   22en-    HQM  788   0.780   1.687  -0.626  1.6474  2.0525  0.9628
   22en-    HQM  789   0.827   1.573  -0.398 -0.0657 -0.2139  1.7887
   22en-    HQM  790   0.740   1.485  -0.210  0.6467 -0.2989  0.3635
   22en-    CQM  791   0.575   1.465   0.009 -0.8709 -1.1758  0.2388
   22en-    HQM  792   0.670   1.413   0.023 -1.1543 -1.7382  0.0911
   23en-    CQM  793   0.131   2.189   1.487  0.6495 -1.6375 -0.8169
   23en-    CQM  794   0.027   2.145   1.568 -0.3299  0.1523 -0.0720
   23en-    CQM  795   0.047   2.138   1.709 -0.7321  0.0279 -0.0687
   23en-    CQM  796  -0.057   2.086   1.787 -0.3234 -0.6318  0.4316
   23en-    CQM  797  -0.043   2.069   1.930  0.1017 -0.1402  0.6388
   23en-    CQM  798   0.084   2.095   1.981 -1.1511  0.2280  0.0444
   23en-    CQM  799   0.190   2.143   1.905  0.7722  0.2289  0.0226
   23en-    CQM  800   0.173   2.166   1.766  0.6560 -0.3969 -0.3226
   23en-    CQM  801   0.279   2.207   1.683  0.6132  0.2169 -0.7946
   23en-    CQM  802   0.258   2.221   1.545 -0.0957 -0.4704 -0.0689
   23en-    CQM  803   0.122   2.207   1.349  0.3562  0.3107 -0.4632
   23en-    HQM  804  -0.063   2.117   1.515 -0.8340 -0.1412  0.9176
   23en-    HQM  805  -0.146   2.043   1.743 -0.8722 -0.6274  1.5249
   23en-    HQM  806  -0.126   2.026   1.986 -0.7949  3.3599  2.0983
   23en-    HQM  807   0.105   2.069   2.085  0.5732  2.2408  0.2270
   23en-    HQM  808   0.288   2.156   1.949  0.9018 -0.7917  0.0578
   23en-    HQM  809   0.381   2.210   1.720  0.8421 -0.7945 -1.3328
   23en-    HQM  810   0.034   2.162   1.303  0.0013  1.8532 -1.3305
   23en-    CQM  811   0.219   2.253   1.267 -0.9827  0.3864  0.2200
   23en-    CQM  812   0.344   2.291   1.324 -0.3090 -0.3279 -0.2732
   23en-    CQM  813   0.452   2.333   1.243  0.1389  0.1080  0.9764
   23en-    CQM  814   0.430   2.339   1.102  0.9132  0.1906 -0.4653
   23en-    CQM  815   0.535   2.384   1.020  0.1290  0.2281  0.0967
   23en-    CQM  816   0.515   2.381   0.880 -1.0094 -0.4099  0.1284
   23en-    CQM  817   0.393   2.331   0.821  0.2872 -0.1395 -0.4003
   23en-    CQM  818   0.284   2.297   0.906  0.3141 -0.4043  0.8424
   23en-    CQM  819   0.306   2.292   1.045 -0.5324 -0.8445 -0.2145
   23en-    CQM  820   0.202   2.246   1.132 -0.2123 -0.1352 -0.2725
   23en-    HQM  821   0.102   2.222   1.097 -0.0158 -1.0452 -0.2055
   23en-    HQM  822   0.187   2.271   0.864  0.0577 -0.6392  1.5641
   23en-    HQM  823   0.379   2.330   0.714  2.8592 -1.1137 -0.7660
   23en-    HQM  824   0.590   2.422   0.813 -1.1789 -2.0311 -1.0824
   23en-    HQM  825   0.632   2.411   1.060  0.2935 -1.0177  0.5604
   23en-    HQM  826   0.550   2.364   1.279  1.1047 -0.8012 -0.7971
   23en-    CQM  827   0.363   2.272   1.462  0.4778 -0.1514  0.1710
   23en-    HQM  828   0.462   2.292   1.501 -0.0270  1.0797  0.8309
   24en-    CQM  829   0.429   1.870   1.490 -0.3004  0.3862 -0.7725
   24en-    CQM  830   0.330   1.874   1.596  0.1157 -0.0509  0.3336
   24en-    CQM  831   0.358   1.802   1.715  0.1268  0.1275  0.1132
   24en-    CQM  832   0.261   1.807   1.811  0.0651  0.5721 -0.0483
   24en-    CQM  833   0.278   1.739   1.935 -0.6618 -0.4102 -0.4383
   24en-    CQM  834   0.398   1.667   1.963 -0.4192  0.4635 -0.1508
   24en-    CQM  835   0.501   1.675   1.869  0.3503 -0.7804  0.2349
   24en-    CQM  836   0.479   1.736   1.745  0.1050  0.2604  0.9639
   24en-    CQM  837   0.573   1.731   1.637  0.2613 -0.1772  0.3765
   24en-    CQM  838   0.550   1.800   1.516  0.2554 -0.2012  0.3513
   24en-    CQM  839   0.400   1.933   1.370 -0.3982  0.3291  0.3849
   24en-    HQM  840   0.234   1.922   1.580  0.3343 -0.1911 -1.5346
   24en-    HQM  841   0.165   1.853   1.792 -1.0053 -1.5214  0.1018
   24en-    HQM  842   0.195   1.726   2.005 -0.2208 -0.0243  0.1541
   24en-    HQM  843   0.404   1.617   2.060  1.2209 -1.5066 -1.2096
   24en-    HQM  844   0.588   1.611   1.876  2.4422  1.5072 -3.3326
   24en-    HQM  845   0.659   1.666   1.650  0.0331 -0.0995  2.4357
   24en-    HQM  846   0.311   1.992   1.351  0.9763  2.3348 -0.0434
   24en-    CQM  847   0.497   1.926   1.270  0.6529 -0.2633 -0.3662
   24en-    CQM  848   0.616   1.860   1.293  0.6532 -0.2292  0.0688
   24en-    CQM  849   0.710   1.843   1.187  0.2857  0.3265 -0.2777
   24en-    CQM  850   0.688   1.916   1.068  0.0940 -0.3770  0.6045
   24en-    CQM  851   0.782   1.908   0.959 -0.0819  0.1874 -0.2492
   24en-    CQM  852   0.749   1.962   0.835 -0.4276 -0.4698 -0.3333
   24en-    CQM  853   0.630   2.036   0.819  0.8442 -0.4020 -0.4831
   24en-    CQM  854   0.539   2.045   0.922 -0.1199  0.0608 -0.4052
   24en-    CQM  855   0.567   1.985   1.042  0.3252  0.1459 -0.1709
   24en-    CQM  856   0.476   1.990   1.145  0.2402 -0.2030  0.1182
   24en-    HQM  857   0.380   2.040   1.132  0.2309 -0.2550 -0.0112
   24en-    HQM  858   0.441   2.088   0.910  0.0610  1.4666  2.5592
   24en-    HQM  859   0.608   2.086   0.725 -0.9265  0.0395  0.1294
   24en-    HQM  860   0.814   1.950   0.749  1.2449  1.0689  0.6727
   24en-    HQM  861   0.875   1.853   0.966 -0.8403 -1.1109 -0.1353
   24en-    HQM  862   0.800   1.784   1.200  0.4770  0.2580 -1.7744
   24en-    CQM  863   0.636   1.791   1.410 -0.1051 -0.5637  0.3123
   24en-    HQM  864   0.726   1.731   1.423  0.7062  0.0366 -2.3497
   25en-    CQM  865   0.196   2.523   2.883  0.7493 -0.2382 -0.7517
   25en-    CQM  866   0.101   2.458   2.969  0.2100 -0.2082 -0.3518
   25en-    CQM  867   0.133   2.447   3.101 -0.8125  0.9653 -0.0394
   25en-    CQM  868   0.028   2.399   3.182 -0.2363 -0.0049 -0.6924
   25en-    CQM  869   0.055   2.380   3.319  0.6688  0.0892 -0.0797
   25en-    CQM  870   0.184   2.407   3.374  0.5149  0.7385  0.4141
   25en-    CQM  871   0.281   2.467   3.293 -0.3495 -0.6097  0.1254
   25en-    CQM  872   0.255   2.486   3.156 -0.3356  0.5605 -0.4352
   25en-    CQM  873   0.349   2.539   3.075 -0.1722  0.3434  0.2634
   25en-    CQM  874   0.327   2.557   2.934 -0.2346 -0.3196 -0.5056
   25en-    CQM  875   0.167   2.538   2.748 -0.4095 -0.1699 -0.2221
   25en-    HQM  876   0.002   2.431   2.936 -1.0879 -2.2675  4.7426
   25en-    HQM  877  -0.072   2.375   3.148 -0.2287  0.2027 -0.8574
   25en-    HQM  878  -0.021   2.330   3.379  2.0133 -0.8278  0.8908
   25en-    HQM  879   0.202   2.376   3.476  0.8179  1.9127  0.7273
   25en-    HQM  880   0.379   2.488   3.333 -0.8524 -2.2303  2.2808
   25en-    HQM  881   0.446   2.563   3.118 -0.1993  2.0957 -0.5992
   25en-    HQM  882   0.076   2.495   2.709 -0.2341  0.9348 -1.9240
   25en-    CQM  883   0.264   2.578   2.654 -0.1554  0.1385  0.4203
   25en-    CQM  884   0.391   2.623   2.708  0.2744  0.2987 -0.1742
   25en-    CQM  885   0.495   2.664   2.625  0.0127  0.7052 -0.2121
   25en-    CQM  886   0.479   2.666   2.483  0.0384 -0.1548  0.0562
   25en-    CQM  887   0.573   2.723   2.401  0.5650  0.0440 -0.4686
   25en-    CQM  888   0.547   2.731   2.266 -0.8501  0.4233  0.4578
   25en-    CQM  889   0.427   2.687   2.211 -0.3579 -0.4485  0.1188
   25en-    CQM  890   0.328   2.624   2.289  0.0904 -0.4199 -0.3530
   25en-    CQM  891   0.354   2.615   2.425 -0.1340 -0.2876 -0.9036
   25en-    CQM  892   0.249   2.579   2.510 -0.6126  0.0812 -0.4497
   25en-    HQM  893   0.159   2.543   2.462  0.0088 -2.7398  0.3817
   25en-    HQM  894   0.234   2.595   2.241  0.8203  1.4571 -3.0016
   25en-    HQM  895   0.407   2.723   2.110 -0.0055 -0.6552 -0.0265
   25en-    HQM  896   0.623   2.784   2.209 -0.2105 -0.9318  0.0483
   25en-    HQM  897   0.664   2.760   2.447  1.9603  0.8166 -3.7205
   25en-    HQM  898   0.583   2.700   2.679  1.8368 -1.2922 -1.7521
   25en-    CQM  899   0.423   2.609   2.845  0.0706 -0.6858 -0.2157
   25en-    HQM  900   0.526   2.622   2.877  0.7430  0.3856 -2.7552
   26en-    CQM  901   0.464   2.178   2.890  0.1273  0.0392  0.3304
   26en-    CQM  902   0.359   2.179   2.986 -0.0419  0.2849 -0.3351
   26en-    CQM  903   0.381   2.122   3.114 -0.4279 -0.2641 -0.0574
   26en-    CQM  904   0.275   2.120   3.204 -0.1622 -0.2500 -0.1693
   26en-    CQM  905   0.292   2.053   3.320 -0.1634  0.2985 -0.5540
   26en-    CQM  906   0.410   1.986   3.351 -0.4546  0.4189 -0.2224
   26en-    CQM  907   0.520   2.001   3.268  0.2753 -0.3612 -0.5035
   26en-    CQM  908   0.499   2.061   3.143 -1.3208  0.3194  0.5275
   26en-    CQM  909   0.602   2.051   3.043  0.4097  0.3949  0.0282
   26en-    CQM  910   0.586   2.112   2.918 -0.2811  0.4814 -0.6246
   26en-    CQM  911   0.455   2.243   2.767  0.1541  0.6007  0.6135
   26en-    HQM  912   0.268   2.226   2.952  0.5703  1.3947 -0.4660
   26en-    HQM  913   0.178   2.165   3.185 -0.0651 -0.6114 -1.5685
   26en-    HQM  914   0.211   2.056   3.392 -0.9911 -2.2830 -1.3349
   26en-    HQM  915   0.427   1.945   3.450 -1.6333 -0.4498 -0.3659
   26en-    HQM  916   0.615   1.962   3.302  0.0156  0.3156  1.0748
   26en-    HQM  917   0.687   1.989   3.073 -1.0704 -0.7258  2.0244
   26en-    HQM  918   0.371   2.309   2.745 -0.5290 -0.9449 -1.5198
   26en-    CQM  919   0.557   2.246   2.672 -0.4314 -0.7051 -0.5674
   26en-    CQM  920   0.676   2.177   2.695 -0.1865 -0.3865  0.2305
   26en-    CQM  921   0.773   2.175   2.596 -0.5220 -0.2710  0.2434
   26en-    CQM  922   0.753   2.245   2.477 -0.1464 -0.3567 -0.1370
   26en-    CQM  923   0.854   2.245   2.379  0.4747  0.0512 -0.0067
   26en-    CQM  924   0.829   2.313   2.254  0.1136  0.4955  0.4526
   26en-    CQM  925   0.708   2.380   2.234 -0.0396  0.7945 -0.7359
   26en-    CQM  926   0.612   2.388   2.338 -0.1969 -1.0561  0.1195
   26en-    CQM  927   0.633   2.319   2.460 -0.1910  0.8472  0.3046
   26en-    CQM  928   0.534   2.323   2.556  0.4321 -1.0340 -0.8272
   26en-    HQM  929   0.441   2.371   2.528  0.8688  0.3003 -0.0540
   26en-    HQM  930   0.517   2.435   2.314 -0.1575 -0.1820  1.6107
   26en-    HQM  931   0.698   2.426   2.136 -1.7797  2.8151  0.3588
   26en-    HQM  932   0.902   2.314   2.173 -1.5779  1.1992 -1.1048
   26en-    HQM  933   0.946   2.191   2.397  1.2467  0.8159 -1.5939
   26en-    HQM  934   0.863   2.116   2.612 -0.3586  0.4196  2.0817
   26en-    CQM  935   0.689   2.115   2.821  0.3092  0.2168 -0.1782
   26en-    HQM  936   0.773   2.047   2.834  0.4939  0.4915  0.0519
   27en-    CQM  937   0.233   2.848   4.274  0.2170  0.1840  0.3843
   27en-    CQM  938   0.138   2.802   4.366 -0.3398 -0.0001  0.7984
   27en-    CQM  939   0.164   2.790   4.504 -0.2780  0.0815 -0.3567
   27en-    CQM  940   0.068   2.721   4.585 -0.2756 -0.4301 -0.4963
   27en-    CQM  941   0.099   2.712   4.719 -0.3575 -0.4265 -0.1710
   27en-    CQM  942   0.221   2.768   4.771 -0.0643 -0.3007 -0.4073
   27en-    CQM  943   0.317   2.824   4.689 -0.8660 -0.3731 -0.5114
   27en-    CQM  944   0.291   2.831   4.553  0.1628 -0.5594 -0.2012
   27en-    CQM  945   0.388   2.889   4.468  0.3115 -0.2096 -0.1626
   27en-    CQM  946   0.357   2.897   4.328 -0.7167  0.1895  0.4838
   27en-    CQM  947   0.207   2.857   4.137  0.7671 -0.0319  0.3553
   27en-    HQM  948   0.048   2.758   4.321  1.2055 -1.9953 -0.4425
   27en-    HQM  949  -0.033   2.698   4.552 -0.9680  1.0285  0.5719
   27en-    HQM  950   0.024   2.670   4.785 -0.3996  0.4435  0.3395
   27en-    HQM  951   0.231   2.774   4.879  0.6050  1.3932 -0.5467
   27en-    HQM  952   0.412   2.863   4.724 -1.2595 -0.2360  0.4499
   27en-    HQM  953   0.480   2.929   4.510 -0.4034  0.0989  1.1404
   27en-    HQM  954   0.111   2.826   4.098  0.5319  0.4368  0.5665
   27en-    CQM  955   0.305   2.912   4.050 -0.3972  0.1489 -0.3537
   27en-    CQM  956   0.429   2.956   4.106  1.1988 -0.4067  0.4900
   27en-    CQM  957   0.523   3.003   4.015  0.2781  0.3540  0.1232
   27en-    CQM  958   0.501   2.998   3.876 -0.5355  0.9440 -0.2201
   27en-    CQM  959   0.599   3.046   3.787 -0.1591 -0.7283 -0.3767
   27en-    CQM  960   0.577   3.060   3.649 -0.1050 -0.2397  0.1578
   27en-    CQM  961   0.451   3.029   3.596  0.0744 -0.4249 -0.2575
   27en-    CQM  962   0.359   2.965   3.683  1.0869 -1.0952  0.4194
   27en-    CQM  963   0.380   2.960   3.823  0.8686 -0.1977  0.0493
   27en-    CQM  964   0.282   2.909   3.911  0.0765 -0.6836  0.1122
   27en-    HQM  965   0.182   2.887   3.872 -1.0331 -0.2054  2.5982
   27en-    HQM  966   0.264   2.932   3.642  0.9750  0.4123 -0.5772
   27en-    HQM  967   0.438   3.028   3.488  2.4274 -0.0254 -0.5716
   27en-    HQM  968   0.658   3.103   3.592 -2.9526  3.6608 -1.1955
   27en-    HQM  969   0.700   3.068   3.821 -0.3462 -0.4335 -0.0005
   27en-    HQM  970   0.611   3.057   4.047 -0.0304  1.8623 -1.5305
   27en-    CQM  971   0.455   2.951   4.243  0.3551  0.2822  0.0995
   27en-    HQM  972   0.555   2.967   4.282  0.2974 -0.9654  0.7768
   28en-    CQM  973   0.504   2.503   4.305  0.6132  0.2374 -0.2967
   28en-    CQM  974   0.406   2.510   4.407 -0.7172 -0.2694 -0.4788
   28en-    CQM  975   0.433   2.443   4.527  0.1046 -0.7138 -0.1804
   28en-    CQM  976   0.330   2.438   4.623 -0.3516  0.4193 -0.1962
   28en-    CQM  977   0.358   2.382   4.751  1.3063  0.8528  0.1630
   28en-    CQM  978   0.480   2.315   4.777 -0.2525 -0.6322 -0.5277
   28en-    CQM  979   0.577   2.301   4.672 -0.0257 -0.0808  0.1678
   28en-    CQM  980   0.555   2.374   4.548  0.1933  0.5444  0.0116
   28en-    CQM  981   0.650   2.380   4.447 -1.2059 -0.0850 -0.6433
   28en-    CQM  982   0.625   2.440   4.324 -1.3047 -0.3069  0.2643
   28en-    CQM  983   0.476   2.564   4.177  0.3375  0.1908 -0.3191
   28en-    HQM  984   0.313   2.564   4.393  0.3066  2.5151  2.8613
   28en-    HQM  985   0.237   2.492   4.608  0.5054  1.4345 -2.0732
   28en-    HQM  986   0.275   2.382   4.821  0.2373  0.2825 -1.0867
   28en-    HQM  987   0.495   2.266   4.872  0.5030 -1.3057 -0.9835
   28en-    HQM  988   0.671   2.248   4.689  0.2209  0.5324  0.7184
   28en-    HQM  989   0.745   2.330   4.463 -1.3821  0.5642  2.7859
   28en-    HQM  990   0.388   2.627   4.168  0.7696  0.4873 -2.7383
   28en-    CQM  991   0.571   2.563   4.074  0.2774  0.2491 -0.0048
   28en-    CQM  992   0.689   2.493   4.089 -0.3969 -0.2373 -0.3608
   28en-    CQM  993   0.786   2.492   3.987 -0.2186 -0.1086 -0.2997
   28en-    CQM  994   0.760   2.562   3.867  0.2335 -0.3722 -0.4363
   28en-    CQM  995   0.857   2.570   3.771  0.9055 -0.2571  0.3885
   28en-    CQM  996   0.836   2.640   3.652  0.3298 -0.5437 -0.6142
   28en-    CQM  997   0.713   2.711   3.637 -0.3533  0.0071  0.1373
   28en-    CQM  998   0.616   2.706   3.737 -0.8173  0.0668  0.1596
   28en-    CQM  999   0.637   2.623   3.849  0.1530  0.5563 -0.3298
   28en-    CQM 1000   0.543   2.628   3.955 -0.6841  0.1006  0.2447
   28en-    HQM 1001   0.456   2.691   3.942  1.1376  2.3141 -1.9238
   28en-    HQM 1002   0.523   2.760   3.722  0.6260  2.8734  0.8897
   28en-    HQM 1003   0.697   2.778   3.553  0.2375 -1.3147 -1.0515
   28en-    HQM 1004   0.910   2.631   3.573 -1.6214 -0.2152 -2.5241
   28en-    HQM 1005   0.955   2.526   3.785  1.2303 -0.2235 -1.5838
   28en-    HQM 1006   0.890   2.464   4.002 -0.4849 -0.2153  1.4555
   28en-    CQM 1007   0.719   2.438   4.221 -0.1337  0.1849  0.5291
   28en-    HQM 1008   0.813   2.386   4.238 -1.1213 -2.0780 -0.6658
   29en-    CQM 1009   0.289   3.228   5.687  0.7822 -1.0277  0.4426
   29en-    CQM 1010   0.187   3.185   5.770  0.2452  0.2086  0.1069
   29en-    CQM 1011   0.205   3.169   5.911 -0.0007  0.2165 -0.0148
   29en-    CQM 1012   0.107   3.109   5.978 -0.2152  0.4343  0.2099
   29en-    CQM 1013   0.122   3.086   6.118 -0.1970  0.3089  0.1811
   29en-    CQM 1014   0.245   3.119   6.186  0.0038 -0.6093  0.3464
   29en-    CQM 1015   0.351   3.181   6.111 -0.3418  0.2009  0.0889
   29en-    CQM 1016   0.329   3.197   5.972  0.4954 -0.3565  0.7240
   29en-    CQM 1017   0.429   3.252   5.889 -0.8103  0.3174  1.1423
   29en-    CQM 1018   0.408   3.262   5.749  0.1597  0.4943  0.2655
   29en-    CQM 1019   0.268   3.232   5.551  0.1087 -0.3330  0.0723
   29en-    HQM 1020   0.091   3.159   5.725  0.6945 -1.0557 -0.1430
   29en-    HQM 1021   0.016   3.072   5.931 -0.0006 -1.3055  1.1287
   29en-    HQM 1022   0.046   3.028   6.170  1.3216 -1.9538 -0.0238
   29en-    HQM 1023   0.262   3.098   6.291  1.8398  1.6703  0.5685
   29en-    HQM 1024   0.447   3.191   6.160 -0.6993  2.9244  0.3003
   29en-    HQM 1025   0.528   3.273   5.929  0.4527 -4.1702  0.6605
   29en-    HQM 1026   0.177   3.196   5.503  0.9255 -2.0616 -0.2235
   29en-    CQM 1027   0.370   3.271   5.471 -0.3390 -0.2199  0.1601
   29en-    CQM 1028   0.496   3.310   5.530 -0.8695  0.2500  0.1166
   29en-    CQM 1029   0.603   3.344   5.449  0.3252 -0.1285 -0.4275
   29en-    CQM 1030   0.584   3.358   5.307 -0.3521 -0.1346  0.1476
   29en-    CQM 1031   0.687   3.419   5.229  0.8348 -0.2480  0.0097
   29en-    CQM 1032   0.652   3.448   5.095 -0.2425 -0.1574  0.3169
   29en-    CQM 1033   0.529   3.412   5.046 -0.2586  0.8319  0.1260
   29en-    CQM 1034   0.438   3.342   5.122  0.3573 -0.0668  0.5544
   29en-    CQM 1035   0.458   3.319   5.253 -0.2461  0.3098 -0.2668
   29en-    CQM 1036   0.350   3.282   5.334  0.0031 -0.2026 -0.1860
   29en-    HQM 1037   0.255   3.267   5.285 -0.6626  2.4661  0.2145
   29en-    HQM 1038   0.346   3.305   5.076  0.1931 -0.3386  1.1044
   29en-    HQM 1039   0.505   3.435   4.943 -1.3423  1.9963  0.6172
   29en-    HQM 1040   0.724   3.489   5.025 -1.4992  1.0756 -0.2867
   29en-    HQM 1041   0.784   3.454   5.262  0.4245  0.4047  0.5420
   29en-    HQM 1042   0.697   3.373   5.495  0.5012 -1.6646  0.1861
   29en-    CQM 1043   0.517   3.297   5.666 -0.2192 -0.9408 -0.1537
   29en-    HQM 1044   0.612   3.326   5.709 -0.1265 -1.0961 -0.2557
   30en-    CQM 1045   0.560   2.874   5.704 -0.6203  0.5012 -0.6265
   30en-    CQM 1046   0.454   2.878   5.799  1.0399  0.3551  0.8699
   30en-    CQM 1047   0.467   2.815   5.921 -0.6931  0.0021  0.4860
   30en-    CQM 1048   0.377   2.830   6.026 -0.1529 -0.0114 -0.2413
   30en-    CQM 1049   0.398   2.764   6.149 -0.1976  0.4927  0.3958
   30en-    CQM 1050   0.519   2.690   6.173  0.5527 -0.3171 -0.0947
   30en-    CQM 1051   0.618   2.681   6.071 -0.1075 -0.2905 -0.2305
   30en-    CQM 1052   0.594   2.746   5.946 -0.0003  0.6215  0.0932
   30en-    CQM 1053   0.696   2.735   5.853 -0.1899  0.5391 -0.2324
   30en-    CQM 1054   0.679   2.804   5.736 -0.0810 -0.1055  0.1046
   30en-    CQM 1055   0.545   2.948   5.585 -0.3292 -0.1208 -0.6438
   30en-    HQM 1056   0.374   2.952   5.791  1.1954  0.4613  0.2495
   30en-    HQM 1057   0.280   2.873   6.004  0.4651  1.7932  0.5155
   30en-    HQM 1058   0.326   2.775   6.230 -1.3082  0.3648 -0.5654
   30en-    HQM 1059   0.536   2.645   6.271  1.8259 -0.2858 -0.2928
   30en-    HQM 1060   0.719   2.647   6.090  0.2929  1.2312  0.3874
   30en-    HQM 1061   0.788   2.678   5.863 -0.3927  0.1869 -0.3622
   30en-    HQM 1062   0.454   3.003   5.560 -0.5849 -0.4570 -0.4555
   30en-    CQM 1063   0.651   2.945   5.489  0.2105 -0.6940  0.1878
   30en-    CQM 1064   0.764   2.870   5.513 -0.3186  0.7615 -0.0825
   30en-    CQM 1065   0.864   2.859   5.420 -0.3177  0.1366 -0.3507
   30en-    CQM 1066   0.846   2.924   5.296  0.8852  0.7358  0.0206
   30en-    CQM 1067   0.943   2.901   5.199  0.1673 -0.2216  0.5477
   30en-    CQM 1068   0.932   2.976   5.076 -0.2430 -0.4023  0.0632
   30en-    CQM 1069   0.826   3.068   5.061  0.0490 -0.5370  0.6540
   30en-    CQM 1070   0.728   3.082   5.158  0.2945 -0.1264  0.1327
   30en-    CQM 1071   0.733   3.003   5.272 -0.1523 -0.3213 -0.2402
   30en-    CQM 1072   0.635   3.013   5.368 -0.4069 -0.0011  0.7465
   30en-    HQM 1073   0.544   3.068   5.345  1.2772  2.3789 -0.3722
   30en-    HQM 1074   0.641   3.144   5.141 -0.4375 -0.7527  1.5126
   30en-    HQM 1075   0.810   3.115   4.964 -1.1810  0.6300  1.4048
   30en-    HQM 1076   1.005   2.958   4.998 -1.4166 -1.9179 -0.6994
   30en-    HQM 1077   1.023   2.828   5.209  1.2199  0.8418  0.0657
   30en-    HQM 1078   0.956   2.802   5.433 -0.8494 -0.4693  0.8027
   30en-    CQM 1079   0.787   2.807   5.640 -0.3536  0.7205 -0.3339
   30en-    HQM 1080   0.878   2.749   5.658 -0.1320  1.1702  0.0043
   31en-    CQM 1081   0.163   2.640   0.100  0.2602 -0.1345 -0.3939
   31en-    CQM 1082   0.054   2.585   0.176  0.1425 -0.6928  0.1518
   31en-    CQM 1083   0.075   2.561   0.308  0.3175  0.0727 -0.1230
   31en-    CQM 1084  -0.025   2.501   0.388  0.4486  0.9020 -0.4395
   31en-    CQM 1085  -0.003   2.472   0.521 -0.1948  0.1184 -0.1100
   31en-    CQM 1086   0.113   2.504   0.588  0.3602  0.0854 -0.2766
   31en-    CQM 1087   0.211   2.569   0.512 -0.2621 -0.1889 -0.0386
   31en-    CQM 1088   0.197   2.590   0.373 -0.2543 -0.5255 -0.7856
   31en-    CQM 1089   0.295   2.657   0.301  0.3643  0.5360  0.7417
   31en-    CQM 1090   0.281   2.681   0.163 -0.3850 -0.1088  0.1083
   31en-    CQM 1091   0.150   2.651  -0.040 -0.0446 -0.4831 -0.4827
   31en-    HQM 1092  -0.040   2.549   0.134  1.0759 -1.8654 -0.9705
   31en-    HQM 1093  -0.119   2.468   0.345 -1.4914  2.4009  2.4715
   31en-    HQM 1094  -0.087   2.422   0.568 -0.7596  0.8814 -0.2883
   31en-    HQM 1095   0.132   2.475   0.690 -1.1282  1.6452  0.4703
   31en-    HQM 1096   0.294   2.620   0.561 -0.9534 -0.2677  1.2237
   31en-    HQM 1097   0.387   2.693   0.347  0.7148 -0.0867  0.5404
   31en-    HQM 1098   0.059   2.625  -0.093 -0.2769  2.5487 -1.6517
   31en-    CQM 1099   0.250   2.709  -0.118  0.5303  0.3720 -0.5045
   31en-    CQM 1100   0.366   2.754  -0.054 -0.8484  0.0592 -0.5000
   31en-    CQM 1101   0.465   2.816  -0.131 -0.1880  0.5657 -0.4174
   31en-    CQM 1102   0.440   2.831  -0.269 -0.0851 -0.3083  0.5985
   31en-    CQM 1103   0.533   2.902  -0.348 -0.2914 -0.3458  0.3383
   31en-    CQM 1104   0.515   2.920  -0.489  0.4569 -0.3935  0.1436
   31en-    CQM 1105   0.400   2.869  -0.547 -0.2863  0.3626  0.1791
   31en-    CQM 1106   0.304   2.805  -0.473 -0.4883 -0.4735 -0.1994
   31en-    CQM 1107   0.326   2.782  -0.335  0.3615  0.1267 -0.2690
   31en-    CQM 1108   0.232   2.716  -0.256 -0.3134 -0.8024  0.1096
   31en-    HQM 1109   0.152   2.663  -0.306  0.7437 -1.3331 -1.0646
   31en-    HQM 1110   0.217   2.766  -0.525  1.1451 -0.2570 -3.1995
   31en-    HQM 1111   0.387   2.876  -0.655  0.5368 -1.2109 -0.0352
   31en-    HQM 1112   0.594   2.975  -0.538  1.3907 -0.2236  1.7950
   31en-    HQM 1113   0.624   2.937  -0.300 -1.1215  1.6986  0.4399
   31en-    HQM 1114   0.552   2.864  -0.089 -1.0877  1.3869  0.5360
   31en-    CQM 1115   0.383   2.747   0.090  0.4261 -0.3554 -0.3108
   31en-    HQM 1116   0.482   2.773   0.126 -0.1101  1.3455 -0.0217
   32en-    CQM 1117   0.422   2.298   0.103  0.4444  0.3016 -0.6405
   32en-    CQM 1118   0.318   2.295   0.199  0.4363  0.4001  0.6293
   32en-    CQM 1119   0.337   2.232   0.323  0.3356 -0.3764 -0.0094
   32en-    CQM 1120   0.238   2.251   0.428  0.0820  0.2005 -0.3112
   32en-    CQM 1121   0.263   2.197   0.554 -1.3835 -0.5613  0.5665
   32en-    CQM 1122   0.380   2.119   0.570 -0.6219 -0.1962 -0.5594
   32en-    CQM 1123   0.476   2.096   0.467 -0.4677 -0.9122 -0.3823
   32en-    CQM 1124   0.457   2.159   0.345 -0.0365  0.1833  0.0908
   32en-    CQM 1125   0.553   2.150   0.246 -0.6916  0.3336 -0.4185
   32en-    CQM 1126   0.541   2.231   0.127 -0.1536 -0.0236  0.4319
   32en-    CQM 1127   0.402   2.383  -0.009 -0.0495  0.2661 -0.6467
   32en-    HQM 1128   0.227   2.354   0.191  0.1477 -0.0726  0.4476
   32en-    HQM 1129   0.147   2.304   0.402 -0.4214 -0.4274  0.1372
   32en-    HQM 1130   0.196   2.221   0.637 -1.6084 -2.0830  0.8396
   32en-    HQM 1131   0.393   2.070   0.667  0.9142  2.3264  0.5605
   32en-    HQM 1132   0.562   2.032   0.485 -0.5497 -0.5957  1.1434
   32en-    HQM 1133   0.641   2.088   0.258 -0.7517  0.0365 -1.4812
   32en-    HQM 1134   0.311   2.439  -0.026  0.9723  2.3868  0.5741
   32en-    CQM 1135   0.506   2.388  -0.110  0.1366 -0.0156 -0.4840
   32en-    CQM 1136   0.627   2.313  -0.087  0.0935 -0.3555 -0.6142
   32en-    CQM 1137   0.728   2.314  -0.187 -0.7125 -0.6574  0.2380
   32en-    CQM 1138   0.708   2.376  -0.314  0.3224  0.4073 -0.6605
   32en-    CQM 1139   0.805   2.371  -0.415 -0.7489 -0.1546 -0.1555
   32en-    CQM 1140   0.782   2.447  -0.529 -0.6596  0.2195 -0.0157
   32en-    CQM 1141   0.663   2.522  -0.545  0.3277  1.0834  0.5145
   32en-    CQM 1142   0.562   2.517  -0.449 -0.1052 -0.3351 -0.0509
   32en-    CQM 1143   0.586   2.448  -0.332  0.0037 -0.0122 -0.1643
   32en-    CQM 1144   0.490   2.452  -0.228 -0.1126  0.2178 -0.2971
   32en-    HQM 1145   0.397   2.501  -0.252  0.5275  1.1846 -0.8121
   32en-    HQM 1146   0.474   2.581  -0.450 -0.9536 -1.5035 -0.6133
   32en-    HQM 1147   0.645   2.593  -0.625 -1.8021  0.6925  0.6222
   32en-    HQM 1148   0.859   2.449  -0.604 -0.1059 -1.0766  0.5165
   32en-    HQM 1149   0.898   2.316  -0.408 -0.6894  0.1214  1.5870
   32en-    HQM 1150   0.821   2.259  -0.172  1.3023  2.4977 -0.2707
   32en-    CQM 1151   0.643   2.233   0.030  0.1608 -0.3473  0.2755
   32en-    HQM 1152   0.734   2.175   0.042 -0.3055 -0.8075  1.6850
   33en-    CQM 1153   0.209   2.972   1.476  0.1211 -0.4633  0.1076
   33en-    CQM 1154   0.117   2.909   1.563 -0.1736 -0.3784  0.1677
   33en-    CQM 1155   0.135   2.902   1.704  0.2403 -0.0143 -0.0613
   33en-    CQM 1156   0.040   2.836   1.786  0.0842  0.3676 -0.2121
   33en-    CQM 1157   0.060   2.831   1.924  0.7059 -0.4845  0.5953
   33en-    CQM 1158   0.175   2.881   1.989 -0.6095  0.5454 -0.1009
   33en-    CQM 1159   0.274   2.931   1.904 -0.2337 -0.7392  0.3766
   33en-    CQM 1160   0.250   2.955   1.767  0.3659  0.1553  0.1254
   33en-    CQM 1161   0.341   3.014   1.681  0.2601  0.0326  0.7800
   33en-    CQM 1162   0.324   3.024   1.540 -0.1137  0.9232 -0.0749
   33en-    CQM 1163   0.189   2.961   1.339  0.0568 -0.1265 -1.4267
   33en-    HQM 1164   0.028   2.864   1.521  0.0563 -1.2882  0.6351
   33en-    HQM 1165  -0.052   2.802   1.739 -0.4939  2.6619 -0.8148
   33en-    HQM 1166  -0.028   2.786   1.968 -0.1030  0.3866 -0.1241
   33en-    HQM 1167   0.185   2.887   2.097 -0.6082 -1.4291  0.0297
   33en-    HQM 1168   0.373   2.950   1.945 -0.1760 -2.2348  0.9694
   33en-    HQM 1169   0.429   3.063   1.723  2.0523 -1.5204 -1.0804
   33en-    HQM 1170   0.103   2.920   1.287 -1.1582  0.4099  0.1374
   33en-    CQM 1171   0.283   3.025   1.260 -0.6965 -0.6843  0.0343
   33en-    CQM 1172   0.401   3.074   1.318  0.4121 -0.6187 -0.1622
   33en-    CQM 1173   0.503   3.127   1.244  0.1047 -0.0547  0.5849
   33en-    CQM 1174   0.481   3.147   1.109 -1.0808  0.7232  0.4545
   33en-    CQM 1175   0.576   3.222   1.034  0.3945  0.3155 -0.4096
   33en-    CQM 1176   0.566   3.230   0.895  0.5710 -0.8895  0.3343
   33en-    CQM 1177   0.457   3.174   0.828 -0.1291  0.0773 -0.2335
   33en-    CQM 1178   0.355   3.104   0.902  0.0203  1.1074 -0.3968
   33en-    CQM 1179   0.373   3.089   1.042  0.1193 -0.0737 -0.2383
   33en-    CQM 1180   0.272   3.028   1.119  0.1995 -0.5484 -0.2574
   33en-    HQM 1181   0.183   2.994   1.067 -1.0604  1.4332  0.5464
   33en-    HQM 1182   0.268   3.060   0.853  1.7360 -0.6584 -1.9521
   33en-    HQM 1183   0.448   3.191   0.721 -0.9360  1.0034 -0.0339
   33en-    HQM 1184   0.652   3.274   0.845 -0.1814 -1.3448 -1.3930
   33en-    HQM 1185   0.655   3.275   1.086  0.7109 -0.0996 -0.4691
   33en-    HQM 1186   0.588   3.171   1.296  0.5916  1.3125 -1.3295
   33en-    CQM 1187   0.422   3.079   1.456 -0.0850 -0.1234  0.4803
   33en-    HQM 1188   0.518   3.114   1.495  0.7975  0.4798 -2.1211
   34en-    CQM 1189   0.494   2.656   1.494 -0.0977 -0.0367  0.3800
   34en-    CQM 1190   0.389   2.653   1.585  0.1894  0.3437 -0.1542
   34en-    CQM 1191   0.396   2.572   1.703 -0.4348 -0.2538  0.2742
   34en-    CQM 1192   0.300   2.579   1.811  0.0605  0.6792  0.3195
   34en-    CQM 1193   0.313   2.496   1.922 -0.1988  0.3876  0.0114
   34en-    CQM 1194   0.421   2.412   1.940 -0.2360  0.3415  0.6286
   34en-    CQM 1195   0.524   2.420   1.843 -0.0789  0.3159 -0.2398
   34en-    CQM 1196   0.507   2.494   1.725 -0.4454  0.6643  0.5997
   34en-    CQM 1197   0.612   2.494   1.633  0.3536 -0.0497  1.1384
   34en-    CQM 1198   0.604   2.567   1.511  0.9043 -0.0341  0.0967
   34en-    CQM 1199   0.479   2.728   1.377 -0.4046  0.5270 -0.2569
   34en-    HQM 1200   0.309   2.725   1.568 -0.0106  0.0523 -0.4703
   34en-    HQM 1201   0.215   2.646   1.799 -0.6246  0.6356  4.4794
   34en-    HQM 1202   0.231   2.500   1.993  0.6194 -0.4883  1.0191
   34en-    HQM 1203   0.436   2.354   2.031  1.7347 -1.3425 -0.7015
   34en-    HQM 1204   0.611   2.356   1.847 -0.8824 -0.7234  0.9615
   34en-    HQM 1205   0.704   2.440   1.651  0.8611  0.6860  0.7735
   34en-    HQM 1206   0.398   2.799   1.365 -0.5792  0.4091  0.2171
   34en-    CQM 1207   0.575   2.713   1.271  0.4038  0.4834  0.0541
   34en-    CQM 1208   0.689   2.632   1.293  0.3401  1.0392  0.3235
   34en-    CQM 1209   0.789   2.622   1.198 -0.2327  0.4961  0.4976
   34en-    CQM 1210   0.781   2.693   1.079  0.0084  0.2669 -0.0969
   34en-    CQM 1211   0.869   2.672   0.974 -0.7644  0.5900  0.2053
   34en-    CQM 1212   0.861   2.746   0.854 -0.4014  0.5876  0.3872
   34en-    CQM 1213   0.761   2.839   0.838  0.4916 -0.0888 -0.4999
   34en-    CQM 1214   0.654   2.855   0.935  0.2114  0.1430 -0.4995
   34en-    CQM 1215   0.670   2.782   1.056  0.3990 -0.1351 -0.6671
   34en-    CQM 1216   0.567   2.784   1.157 -0.1363 -0.4105 -0.1103
   34en-    HQM 1217   0.482   2.851   1.145  0.5038  0.0967 -1.8658
   34en-    HQM 1218   0.571   2.923   0.921  0.5853  1.0984  1.7270
   34en-    HQM 1219   0.754   2.890   0.742  1.5054 -0.0195 -0.5390
   34en-    HQM 1220   0.937   2.737   0.776 -0.8239  0.6355 -0.0335
   34en-    HQM 1221   0.957   2.608   0.985  0.0929  1.7855  0.4314
   34en-    HQM 1222   0.883   2.569   1.213 -0.6359 -0.3145  0.1801
   34en-    CQM 1223   0.705   2.563   1.411  0.0081  0.7880 -0.4721
   34en-    HQM 1224   0.780   2.487   1.426  0.2750  1.0569 -0.4285
   35en-    CQM 1225   0.267   3.287   2.898 -0.2966 -0.0790 -0.1561
   35en-    CQM 1226   0.172   3.224   2.977 -0.1565 -0.6212  0.8667
   35en-    CQM 1227   0.197   3.205   3.112 -0.4490  0.4218 -0.0231
   35en-    CQM 1228   0.090   3.151   3.189 -0.0818 -0.3716  0.1603
   35en-    CQM 1229   0.112   3.146   3.331 -0.0494 -0.3915  0.2725
   35en-    CQM 1230   0.230   3.190   3.387  0.4249  0.1640  0.6029
   35en-    CQM 1231   0.325   3.255   3.309  0.7564  0.1330  0.1505
   35en-    CQM 1232   0.314   3.253   3.170 -0.0641  0.1518  0.3697
   35en-    CQM 1233   0.415   3.310   3.088  0.2822  0.3300  0.1505
   35en-    CQM 1234   0.388   3.328   2.950  0.3209  0.1331 -0.2547
   35en-    CQM 1235   0.248   3.288   2.759 -0.6306  0.0367 -0.5050
   35en-    HQM 1236   0.078   3.184   2.940 -0.7943  0.9997  0.6638
   35en-    HQM 1237   0.002   3.108   3.142 -0.3238 -0.6136  0.8305
   35en-    HQM 1238   0.044   3.099   3.402  1.7316  0.2293  2.4451
   35en-    HQM 1239   0.243   3.180   3.495  1.0056 -0.1072  0.5117
   35en-    HQM 1240   0.416   3.298   3.350  0.7333  0.0040  0.3371
   35en-    HQM 1241   0.513   3.341   3.125  1.3150 -1.3799 -1.0503
   35en-    HQM 1242   0.163   3.250   2.703  0.2273  0.7128 -2.3127
   35en-    CQM 1243   0.347   3.339   2.667 -0.0194  0.0094 -0.2985
   35en-    CQM 1244   0.462   3.383   2.724  0.5889  0.2346 -1.1015
   35en-    CQM 1245   0.563   3.432   2.641  0.1105 -0.2690 -0.4600
   35en-    CQM 1246   0.550   3.436   2.502 -0.4102  0.1743  0.4118
   35en-    CQM 1247   0.641   3.498   2.419 -0.3212 -0.3896 -0.0718
   35en-    CQM 1248   0.621   3.511   2.285  0.0153 -0.4346  0.1212
   35en-    CQM 1249   0.502   3.460   2.230  0.1701 -0.3994 -0.0888
   35en-    CQM 1250   0.403   3.397   2.309  0.2946 -0.3040 -0.2432
   35en-    CQM 1251   0.425   3.386   2.445  0.3345  0.7016  0.4921
   35en-    CQM 1252   0.329   3.332   2.525 -0.2172  0.8404 -0.6530
   35en-    HQM 1253   0.234   3.292   2.493 -1.1413  1.6154  1.0284
   35en-    HQM 1254   0.311   3.359   2.266  0.3939  0.6229 -1.3050
   35en-    HQM 1255   0.494   3.461   2.122 -0.7269 -2.7100 -0.0810
   35en-    HQM 1256   0.693   3.569   2.227  1.2753  1.3360  3.3679
   35en-    HQM 1257   0.739   3.531   2.453 -0.5117  0.0498  0.0607
   35en-    HQM 1258   0.650   3.476   2.689 -1.0671  0.6898  0.8343
   35en-    CQM 1259   0.482   3.382   2.862 -0.7017  0.5354  0.0340
   35en-    HQM 1260   0.578   3.416   2.901  0.1399  1.0490 -2.3786
   36en-    CQM 1261   0.531   2.944   2.891 -0.4562 -0.7634  0.3759
   36en-    CQM 1262   0.426   2.954   2.977  0.1280 -0.3736  0.0097
   36en-    CQM 1263   0.436   2.890   3.102  0.5458 -0.3116 -0.6543
   36en-    CQM 1264   0.323   2.895   3.188  0.2604 -0.2699 -0.4869
   36en-    CQM 1265   0.328   2.841   3.313  0.1403  0.1420  0.3161
   36en-    CQM 1266   0.446   2.785   3.357  0.0491  0.3322  0.5111
   36en-    CQM 1267   0.560   2.775   3.274  0.7974  0.4273 -0.2580
   36en-    CQM 1268   0.557   2.826   3.141 -0.9998 -0.2964 -0.1908
   36en-    CQM 1269   0.665   2.828   3.054 -0.0111 -0.4356  0.4167
   36en-    CQM 1270   0.653   2.891   2.930  0.5047  0.0232  0.0829
   36en-    CQM 1271   0.514   2.992   2.763  0.6924 -0.0650 -0.9777
   36en-    HQM 1272   0.333   3.003   2.949 -1.1542 -2.0476  1.1886
   36en-    HQM 1273   0.227   2.937   3.163 -1.3480 -2.4526  1.7567
   36en-    HQM 1274   0.238   2.840   3.375 -0.2353  3.4258 -0.0576
   36en-    HQM 1275   0.450   2.744   3.458  0.3461  3.3131  1.7446
   36en-    HQM 1276   0.648   2.720   3.307 -0.8850 -0.9534  2.1018
   36en-    HQM 1277   0.759   2.784   3.086 -0.4925 -2.0623 -0.3978
   36en-    HQM 1278   0.423   3.039   2.726  0.4593  0.4934  0.2943
   36en-    CQM 1279   0.628   3.001   2.684 -0.4678 -0.2645  0.6068
   36en-    CQM 1280   0.748   2.938   2.719 -0.1555 -0.1786 -0.1984
   36en-    CQM 1281   0.857   2.931   2.627 -0.4743  0.3637  0.2943
   36en-    CQM 1282   0.838   2.973   2.492 -0.3638 -0.2931 -0.2957
   36en-    CQM 1283   0.941   2.968   2.395  0.3928  0.2283  0.6857
   36en-    CQM 1284   0.926   3.035   2.272  0.3916 -0.7988  0.3884
   36en-    CQM 1285   0.804   3.099   2.235 -0.1212  0.4299  0.1335
   36en-    CQM 1286   0.700   3.098   2.328 -0.7080 -0.2288 -0.7627
   36en-    CQM 1287   0.721   3.042   2.455 -0.0326  0.2681  0.0766
   36en-    CQM 1288   0.615   3.052   2.548  0.4075 -0.4521 -0.4082
   36en-    HQM 1289   0.527   3.109   2.520  1.4760  0.7304 -1.3910
   36en-    HQM 1290   0.603   3.142   2.307 -0.8107 -1.0275 -2.0547
   36en-    HQM 1291   0.793   3.146   2.138  0.3814 -0.1497 -0.2129
   36en-    HQM 1292   1.011   3.039   2.204  0.9136  0.6043  1.0979
   36en-    HQM 1293   1.046   2.945   2.410  0.5037 -1.6668 -2.6493
   36en-    HQM 1294   0.952   2.890   2.660 -1.5169 -2.4331 -0.0742
   36en-    CQM 1295   0.765   2.891   2.847 -0.4268  0.2367 -0.5149
   36en-    HQM 1296   0.858   2.838   2.866  0.4690  1.5963 -1.0526
   37en-    CQM 1297   0.276   3.609   4.303  0.1460  0.7980  0.7342
   37en-    CQM 1298   0.169   3.557   4.384 -0.2880 -0.1418 -0.1556
   37en-    CQM 1299   0.204   3.536   4.520 -0.1640 -1.0825  0.0813
   37en-    CQM 1300   0.105   3.489   4.601  0.6797  0.4901  0.0891
   37en-    CQM 1301   0.127   3.481   4.735  0.4465  0.3598  0.7329
   37en-    CQM 1302   0.244   3.525   4.795 -0.4490  0.4413  1.2972
   37en-    CQM 1303   0.348   3.575   4.714 -0.3538 -0.1735  0.1429
   37en-    CQM 1304   0.328   3.587   4.578  0.7450  0.4490 -0.2891
   37en-    CQM 1305   0.423   3.652   4.498  0.0315 -0.7941 -0.6620
   37en-    CQM 1306   0.395   3.662   4.358  0.1770  0.9900 -0.8812
   37en-    CQM 1307   0.258   3.618   4.168  0.9863 -0.6420 -0.9667
   37en-    HQM 1308   0.073   3.531   4.343  0.0871 -1.7056 -0.0494
   37en-    HQM 1309   0.011   3.451   4.561  1.3361 -0.6949 -0.3387
   37en-    HQM 1310   0.040   3.451   4.793 -0.4028  0.7570 -0.3372
   37en-    HQM 1311   0.255   3.532   4.902 -0.1578 -0.0217  1.2995
   37en-    HQM 1312   0.427   3.631   4.765 -1.3034  0.2647  1.1744
   37en-    HQM 1313   0.518   3.688   4.535  1.0194 -3.0165 -0.9272
   37en-    HQM 1314   0.162   3.583   4.131 -0.3280 -0.6940  2.3217
   37en-    CQM 1315   0.361   3.663   4.085  0.1380 -0.1104 -0.1537
   37en-    CQM 1316   0.479   3.716   4.141 -0.4281  0.5771 -0.1047
   37en-    CQM 1317   0.576   3.773   4.047 -0.5603 -0.6254 -0.3741
   37en-    CQM 1318   0.543   3.780   3.913  0.2382 -0.8231 -0.4726
   37en-    CQM 1319   0.637   3.841   3.830 -0.3731 -0.3331  0.0054
   37en-    CQM 1320   0.614   3.850   3.694 -0.5256  0.3381 -0.2939
   37en-    CQM 1321   0.496   3.790   3.641 -0.0160 -0.7606 -0.3563
   37en-    CQM 1322   0.403   3.731   3.727 -0.1261  0.3257  0.0850
   37en-    CQM 1323   0.427   3.724   3.861 -0.5585  0.6959  0.4529
   37en-    CQM 1324   0.331   3.669   3.951  0.3977 -0.4346 -0.7697
   37en-    HQM 1325   0.240   3.631   3.907 -0.1476  1.1315 -1.0400
   37en-    HQM 1326   0.317   3.679   3.685 -0.6530  1.3778 -0.1884
   37en-    HQM 1327   0.485   3.790   3.533  2.5490  0.9431 -0.6481
   37en-    HQM 1328   0.691   3.899   3.634 -1.1319  1.3631 -0.2526
   37en-    HQM 1329   0.731   3.878   3.871  0.7050 -2.8798 -0.0653
   37en-    HQM 1330   0.666   3.821   4.085 -0.2889 -1.1313 -0.3813
   37en-    CQM 1331   0.492   3.715   4.277  0.0278  0.2103 -0.0396
   37en-    HQM 1332   0.585   3.757   4.315 -0.1512  3.3348 -2.8312
   38en-    CQM 1333   0.573   3.287   4.318  0.3656  0.5389  0.5132
   38en-    CQM 1334   0.474   3.295   4.421  0.0933 -0.2442 -0.3286
   38en-    CQM 1335   0.500   3.231   4.546  0.3402  0.4181 -0.4140
   38en-    CQM 1336   0.409   3.238   4.653 -0.6852 -0.5555  0.4704
   38en-    CQM 1337   0.443   3.175   4.770 -0.1416  0.4144 -0.3540
   38en-    CQM 1338   0.558   3.100   4.790  0.0409 -0.1808  0.4323
   38en-    CQM 1339   0.650   3.091   4.681  0.0980 -0.1443 -0.4931
   38en-    CQM 1340   0.621   3.165   4.564  0.3777 -0.4986 -0.4764
   38en-    CQM 1341   0.722   3.163   4.467  0.3362 -0.1724  0.1854
   38en-    CQM 1342   0.692   3.224   4.344 -0.2035 -0.3601  0.4921
   38en-    CQM 1343   0.548   3.349   4.193  0.5374  0.3843  0.7202
   38en-    HQM 1344   0.384   3.353   4.405  0.3797  0.3744  0.3023
   38en-    HQM 1345   0.312   3.285   4.638  0.5745  2.2435  0.6552
   38en-    HQM 1346   0.372   3.182   4.852 -0.1017  1.3939 -0.3906
   38en-    HQM 1347   0.584   3.053   4.884  0.7339 -0.0030  0.3318
   38en-    HQM 1348   0.745   3.042   4.700  0.1420  0.2132  0.2088
   38en-    HQM 1349   0.815   3.109   4.485 -0.5371 -0.6869  3.4068
   38en-    HQM 1350   0.457   3.408   4.182 -1.6548 -2.3584  3.4540
   38en-    CQM 1351   0.651   3.347   4.094  0.5562 -0.1556  0.0352
   38en-    CQM 1352   0.772   3.281   4.119  0.2740  0.2160  0.0667
   38en-    CQM 1353   0.864   3.268   4.017 -0.0312 -0.3818 -0.3413
   38en-    CQM 1354   0.838   3.328   3.893 -0.3521 -0.1054  0.1743
   38en-    CQM 1355   0.942   3.331   3.793  0.5082 -0.0907 -0.7002
   38en-    CQM 1356   0.918   3.402   3.671 -0.3549  0.3430  0.0216
   38en-    CQM 1357   0.797   3.471   3.654 -0.4913 -0.3029  0.4909
   38en-    CQM 1358   0.700   3.470   3.754 -0.2562 -0.2961 -0.4216
   38en-    CQM 1359   0.721   3.402   3.877  0.2239 -0.1612  0.3371
   38en-    CQM 1360   0.625   3.409   3.977 -0.0355 -0.1882 -0.5419
   38en-    HQM 1361   0.535   3.467   3.958 -0.1828 -0.9803 -2.2770
   38en-    HQM 1362   0.608   3.525   3.742  0.2029  0.2063 -1.7139
   38en-    HQM 1363   0.777   3.524   3.561  0.5477  0.9122  0.9430
   38en-    HQM 1364   0.994   3.397   3.594  1.0436 -2.2053  1.4649
   38en-    HQM 1365   1.036   3.276   3.796 -0.3355 -1.5836 -1.1074
   38en-    HQM 1366   0.957   3.217   4.043 -2.4539 -2.8849  4.0082
   38en-    CQM 1367   0.795   3.219   4.243  0.1797 -0.0274  0.5105
   38en-    HQM 1368   0.889   3.166   4.256 -0.8765 -2.1479 -0.2863
   39en-    CQM 1369   3.130   0.137   5.705 -0.5585  0.2681  0.1317
   39en-    CQM 1370   3.031   0.073   5.782  0.0479  0.4025 -0.2265
   39en-    CQM 1371   3.046   0.057   5.921 -0.3810  0.6920 -0.3431
   39en-    CQM 1372   2.945   0.000   5.995  0.3113 -0.4233  0.4816
   39en-    CQM 1373   2.958   0.001   6.137  0.3211 -0.1530 -0.2697
   39en-    CQM 1374   3.071   0.053   6.205  0.4362 -0.1580  0.5676
   39en-    CQM 1375   3.175   0.102   6.122  0.0704  0.6508 -1.5552
   39en-    CQM 1376   3.166   0.099   5.983  0.8103  0.4734  0.2712
   39en-    CQM 1377   3.270   0.151   5.903 -0.3164 -0.2701 -0.7051
   39en-    CQM 1378   3.251   0.167   5.766 -0.3696  0.2198 -0.0279
   39en-    CQM 1379   3.105   0.155   5.568  0.4105 -0.1472  0.0160
   39en-    HQM 1380   2.936   0.043   5.739 -0.1367 -0.2730  0.6422
   39en-    HQM 1381   2.852  -0.032   5.949  0.1886  2.3343 -1.3177
   39en-    HQM 1382   2.872  -0.030   6.195 -0.5453  0.7738 -1.0358
   39en-    HQM 1383   3.068   0.049   6.313  2.5597 -0.8426  0.6289
   39en-    HQM 1384   3.267   0.144   6.160 -1.5257  1.7792  1.2234
   39en-    HQM 1385   3.360   0.190   5.949 -0.7495 -1.2362  1.0253
   39en-    HQM 1386   3.015   0.127   5.514  0.2557  0.7511 -0.1869
   39en-    CQM 1387   3.209   0.198   5.490 -0.2554  0.5691  0.2800
   39en-    CQM 1388   3.331   0.245   5.549  0.3568 -0.0415  0.1562
   39en-    CQM 1389   3.431   0.295   5.465  0.4056 -0.4169  0.0978
   39en-    CQM 1390   3.418   0.293   5.325  0.5845 -0.5006 -0.1106
   39en-    CQM 1391   3.517   0.351   5.235 -0.2025 -0.3927 -0.5267
   39en-    CQM 1392   3.494   0.362   5.101 -0.3793 -0.1911 -0.6578
   39en-    CQM 1393   3.373   0.313   5.043  0.8755  0.2269 -0.1269
   39en-    CQM 1394   3.273   0.261   5.131 -0.3096  0.0167  0.0891
   39en-    CQM 1395   3.297   0.256   5.265  0.1093  0.6601 -0.2097
   39en-    CQM 1396   3.191   0.205   5.353 -0.2023  0.2638  0.1822
   39en-    HQM 1397   3.096   0.171   5.313 -0.0428 -0.3898  0.3646
   39en-    HQM 1398   3.179   0.227   5.087  0.1106 -0.5754 -0.3567
   39en-    HQM 1399   3.353   0.317   4.936  0.4228  0.7651 -0.0256
   39en-    HQM 1400   3.576   0.402   5.042 -0.7829 -1.4866 -2.1479
   39en-    HQM 1401   3.610   0.385   5.278 -2.0797  3.7437  0.5423
   39en-    HQM 1402   3.518   0.327   5.521  0.2066 -1.5444  1.0624
   39en-    CQM 1403   3.350   0.233   5.687  0.0173  0.4155  0.0788
   39en-    HQM 1404   3.431   0.276   5.746 -0.0593  1.0438 -0.2714
   40en-    CQM 1405   0.647   3.635   5.741 -0.7048 -0.0709 -0.0642
   40en-    CQM 1406   0.544   3.638   5.830 -0.3765 -0.1345 -0.5428
   40en-    CQM 1407   0.561   3.573   5.954  0.2278 -0.4059 -0.0684
   40en-    CQM 1408   0.455   3.575   6.047 -0.2265 -0.3077 -0.7354
   40en-    CQM 1409   0.468   3.498   6.166  0.2696  0.4083  0.0088
   40en-    CQM 1410   0.583   3.423   6.189 -0.4639 -0.3885  0.7745
   40en-    CQM 1411   0.690   3.426   6.098  0.0946  0.2812 -0.5259
   40en-    CQM 1412   0.681   3.500   5.980 -0.3282 -0.1550  0.2865
   40en-    CQM 1413   0.782   3.501   5.890 -1.0042  0.3582  0.3758
   40en-    CQM 1414   0.769   3.567   5.765  0.4867 -0.0726  0.6932
   40en-    CQM 1415   0.627   3.704   5.620  0.6048 -0.2535 -0.9523
   40en-    HQM 1416   0.453   3.695   5.815  0.3402  1.0429 -0.5068
   40en-    HQM 1417   0.369   3.641   6.040  2.3472  3.3140 -0.1894
   40en-    HQM 1418   0.383   3.505   6.234 -1.7400 -3.3978 -1.9779
   40en-    HQM 1419   0.589   3.356   6.274 -0.4771 -0.8441  0.4186
   40en-    HQM 1420   0.779   3.368   6.118 -0.2451 -0.0498  0.0328
   40en-    HQM 1421   0.869   3.438   5.903 -1.3127 -0.2797 -0.5601
   40en-    HQM 1422   0.542   3.770   5.606  1.5359  1.3581  0.7474
   40en-    CQM 1423   0.719   3.698   5.517 -0.0173 -0.1520  0.2020
   40en-    CQM 1424   0.840   3.621   5.534  0.4856  0.7747 -0.5155
   40en-    CQM 1425   0.935   3.615   5.435  0.1190 -0.0780  0.1854
   40en-    CQM 1426   0.918   3.683   5.315  0.3453  0.2640  0.0421
   40en-    CQM 1427   1.013   3.676   5.216  0.0532  0.0654  0.1587
   40en-    CQM 1428   0.987   3.743   5.093 -0.1984 -0.2958  0.7157
   40en-    CQM 1429   0.873   3.831   5.072 -0.1388 -0.3723 -0.0151
   40en-    CQM 1430   0.778   3.825   5.174 -0.6242 -0.1919 -0.0719
   40en-    CQM 1431   0.798   3.756   5.297  0.6616 -0.0484 -0.9340
   40en-    CQM 1432   0.703   3.768   5.397 -0.5446 -0.5683  0.0259
   40en-    HQM 1433   0.617   3.826   5.367  1.2562  2.1225 -0.0624
   40en-    HQM 1434   0.682   3.875   5.158  0.0767  1.5204  0.9586
   40en-    HQM 1435   0.853   3.876   4.975 -0.6400 -2.5399 -0.9364
   40en-    HQM 1436   1.063   3.739   5.015 -0.6186  0.1656  0.2839
   40en-    HQM 1437   1.098   3.613   5.237 -0.1475  0.0225  0.8474
   40en-    HQM 1438   1.030   3.563   5.449 -0.1667 -0.8591 -0.7519
   40en-    CQM 1439   0.862   3.553   5.657  0.4002 -0.1604  0.7435
   40en-    HQM 1440   0.945   3.485   5.669  0.9924  0.5291  0.6077
   41en-    CQM 1441   0.233   3.397   0.072  0.1447  0.4103 -0.3643
   41en-    CQM 1442   0.135   3.341   0.157 -0.1483 -0.0708 -0.1797
   41en-    CQM 1443   0.155   3.326   0.299 -0.0063 -0.0019 -0.1270
   41en-    CQM 1444   0.059   3.269   0.387  0.3570 -0.2114 -0.0722
   41en-    CQM 1445   0.090   3.256   0.528 -0.5843  0.8062 -0.3173
   41en-    CQM 1446   0.210   3.304   0.581 -0.1170  0.0127  0.2057
   41en-    CQM 1447   0.306   3.356   0.493  0.2484 -0.0848  0.1374
   41en-    CQM 1448   0.281   3.366   0.357 -0.1512  0.1463  1.0379
   41en-    CQM 1449   0.379   3.418   0.271  0.3604  0.2494  0.0806
   41en-    CQM 1450   0.358   3.434   0.134  0.3270  0.0662 -0.0015
   41en-    CQM 1451   0.214   3.414  -0.062 -0.7189  0.2726 -0.4907
   41en-    HQM 1452   0.050   3.294   0.108 -0.7929  0.2892  0.5874
   41en-    HQM 1453  -0.024   3.224   0.334  0.0094 -0.1406  0.4143
   41en-    HQM 1454   0.014   3.208   0.588 -0.4358  1.4277  0.3645
   41en-    HQM 1455   0.223   3.306   0.689 -0.0776 -0.3067  0.2069
   41en-    HQM 1456   0.399   3.394   0.535  0.5318  0.3258 -0.8415
   41en-    HQM 1457   0.474   3.446   0.315  1.8717 -2.7027 -1.1429
   41en-    HQM 1458   0.121   3.383  -0.107 -1.2115  1.1861 -0.1177
   41en-    CQM 1459   0.316   3.468  -0.141 -0.0621  0.0390 -0.4365
   41en-    CQM 1460   0.444   3.499  -0.084  0.4403 -0.1831 -0.5887
   41en-    CQM 1461   0.545   3.557  -0.163  0.3752 -0.7007 -0.1732
   41en-    CQM 1462   0.510   3.581  -0.297 -0.4567  0.0761 -0.0935
   41en-    CQM 1463   0.606   3.635  -0.383  0.2172 -0.0028  0.3213
   41en-    CQM 1464   0.583   3.652  -0.523 -0.1066  0.0852  0.2071
   41en-    CQM 1465   0.460   3.611  -0.578  0.7478  0.0375  0.5520
   41en-    CQM 1466   0.352   3.561  -0.498 -0.7141 -0.2577 -0.4041
   41en-    CQM 1467   0.384   3.540  -0.356 -0.3246  0.4815 -0.1002
   41en-    CQM 1468   0.292   3.479  -0.275  0.3824  1.1725 -0.2932
   41en-    HQM 1469   0.201   3.445  -0.324 -0.9570  2.7901  0.9912
   41en-    HQM 1470   0.261   3.526  -0.546 -1.6219  1.1278  0.2807
   41en-    HQM 1471   0.438   3.626  -0.684 -2.0783  2.3755  1.3830
   41en-    HQM 1472   0.665   3.693  -0.582  0.5580  0.3439  1.3097
   41en-    HQM 1473   0.703   3.662  -0.342 -0.1050  0.6711  0.6379
   41en-    HQM 1474   0.638   3.592  -0.121  1.6693 -2.2402 -1.7031
   41en-    CQM 1475   0.456   3.493   0.058  0.1311 -0.0423 -0.6299
   41en-    HQM 1476   0.547   3.534   0.101 -0.3668  2.5991 -1.9434
   42en-    CQM 1477   0.524   3.057   0.137 -0.1549 -0.3136  0.2613
   42en-    CQM 1478   0.428   3.052   0.243 -0.3388  0.2934  0.1890
   42en-    CQM 1479   0.460   2.986   0.357  0.6510 -0.3445 -0.3782
   42en-    CQM 1480   0.370   2.984   0.465  0.9530  0.2010  0.4452
   42en-    CQM 1481   0.396   2.900   0.576 -0.7344  0.2218 -0.5427
   42en-    CQM 1482   0.520   2.825   0.583 -0.1926  0.5854  0.8830
   42en-    CQM 1483   0.613   2.836   0.478  0.4336  0.6867 -0.5339
   42en-    CQM 1484   0.583   2.914   0.367 -0.2497 -0.5846  0.2057
   42en-    CQM 1485   0.680   2.919   0.264  0.3910 -0.1531 -0.0029
   42en-    CQM 1486   0.652   3.002   0.156 -0.3466  0.5342  0.9719
   42en-    CQM 1487   0.490   3.127   0.019  0.5673  0.0037  0.4490
   42en-    HQM 1488   0.336   3.109   0.240 -0.7209 -0.2413  1.3695
   42en-    HQM 1489   0.281   3.045   0.461  1.7025  1.4897  2.6312
   42en-    HQM 1490   0.334   2.895   0.666  0.1801 -0.9794  0.0453
   42en-    HQM 1491   0.535   2.754   0.664 -0.0322 -1.4884 -0.9215
   42en-    HQM 1492   0.696   2.766   0.485  0.0539  0.3958  1.5183
   42en-    HQM 1493   0.780   2.880   0.279 -0.3665 -1.6312  1.3215
   42en-    HQM 1494   0.386   3.155   0.005  0.9356  0.6720 -0.9924
   42en-    CQM 1495   0.579   3.134  -0.089 -0.8303 -0.0275 -0.6750
   42en-    CQM 1496   0.707   3.080  -0.072 -0.2727  0.0839 -0.3174
   42en-    CQM 1497   0.802   3.086  -0.172 -0.7259 -0.0466  0.5591
   42en-    CQM 1498   0.768   3.154  -0.296 -0.8315  0.8601  0.1781
   42en-    CQM 1499   0.860   3.164  -0.400  0.5748  0.1638 -0.1078
   42en-    CQM 1500   0.825   3.225  -0.523  0.3232  0.0556  0.8042
   42en-    CQM 1501   0.697   3.290  -0.532 -0.3160 -0.2387 -1.3078
   42en-    CQM 1502   0.607   3.276  -0.427 -0.5679 -0.4083  0.0838
   42en-    CQM 1503   0.642   3.205  -0.315  0.0138 -0.6131  0.0925
   42en-    CQM 1504   0.549   3.200  -0.208  0.5204 -0.1916  0.3800
   42en-    HQM 1505   0.450   3.242  -0.226  0.4719 -0.0397  0.9838
   42en-    HQM 1506   0.512   3.327  -0.440  0.2704  1.1448  0.0243
   42en-    HQM 1507   0.678   3.344  -0.623 -1.5477  0.6566 -0.5307
   42en-    HQM 1508   0.886   3.228  -0.613 -0.1301  0.5855  0.5132
   42en-    HQM 1509   0.955   3.113  -0.388  0.5191 -0.1802 -1.0809
   42en-    HQM 1510   0.898   3.037  -0.156  0.2878  2.7064  3.5548
   42en-    CQM 1511   0.748   3.015   0.050  0.6391 -0.2211  0.0674
   42en-    HQM 1512   0.845   2.966   0.053  0.3479 -0.7969  0.1466
   43en-    CQM 1513   0.309   3.729   1.492 -0.2425  0.1868  0.1793
   43en-    CQM 1514   0.210   3.683   1.579  0.3805 -0.2410  0.5883
   43en-    CQM 1515   0.242   3.669   1.717  0.0716  0.3605  0.1829
   43en-    CQM 1516   0.151   3.622   1.808  0.5924  1.0960  1.0408
   43en-    CQM 1517   0.182   3.602   1.944 -0.0274  0.3056  0.7297
   43en-    CQM 1518   0.309   3.636   1.991  0.5009  0.0240  0.6343
   43en-    CQM 1519   0.402   3.681   1.897 -0.5895  0.0082  0.3292
   43en-    CQM 1520   0.369   3.701   1.762 -0.5078 -0.2038  0.4155
   43en-    CQM 1521   0.468   3.756   1.675 -0.5449 -0.1620  0.0337
   43en-    CQM 1522   0.431   3.778   1.542 -0.1191 -0.1369 -0.0303
   43en-    CQM 1523   0.289   3.730   1.356 -0.3721  0.2235 -0.3935
   43en-    HQM 1524   0.111   3.653   1.545 -1.2633  3.1736  2.0637
   43en-    HQM 1525   0.055   3.585   1.772  0.8660  0.6212  0.7910
   43en-    HQM 1526   0.099   3.580   2.011 -0.3780  1.3351  0.6563
   43en-    HQM 1527   0.328   3.628   2.097 -1.4635  2.5721  1.2504
   43en-    HQM 1528   0.496   3.710   1.942 -0.5969 -0.5917  0.7398
   43en-    HQM 1529   0.565   3.790   1.710 -0.4570 -1.2065  0.8337
   43en-    HQM 1530   0.201   3.679   1.316 -0.3167 -0.1547 -0.0332
   43en-    CQM 1531   0.376   3.794   1.271  0.1913  0.3484 -0.5686
   43en-    CQM 1532   0.498   3.838   1.319  0.0312 -0.0984  0.2413
   43en-    CQM 1533   0.604   3.885   1.237 -0.1232  0.2634 -0.5095
   43en-    CQM 1534   0.576   3.892   1.097  0.1781  0.6955  0.1248
   43en-    CQM 1535   0.674   3.945   1.007  0.0335 -0.1444 -0.3326
   43en-    CQM 1536   0.649   3.961   0.871  0.0739 -0.0832 -0.1112
   43en-    CQM 1537   0.526   3.925   0.822 -0.0403 -0.3124  0.3427
   43en-    CQM 1538   0.431   3.866   0.904  0.1594  0.0227 -0.1829
   43en-    CQM 1539   0.452   3.851   1.046 -0.3462  0.0019  0.9526
   43en-    CQM 1540   0.357   3.799   1.131 -0.7048  0.6292  0.6103
   43en-    HQM 1541   0.264   3.754   1.095  0.7100 -2.1263  0.2888
   43en-    HQM 1542   0.332   3.849   0.862 -0.2551 -0.0774  0.8366
   43en-    HQM 1543   0.510   3.959   0.720  0.0854 -1.8383 -0.1978
   43en-    HQM 1544   0.721   4.022   0.819 -0.8310  1.4078  0.3544
   43en-    HQM 1545   0.762   3.991   1.052  0.7417  0.8024 -2.6376
   43en-    HQM 1546   0.702   3.916   1.271 -0.1824  1.4781 -1.4409
   43en-    CQM 1547   0.527   3.836   1.459 -0.4682  0.2966 -0.1997
   43en-    HQM 1548   0.622   3.868   1.500 -0.7562 -1.2972  1.7980
   44en-    CQM 1549   0.596   3.395   1.484 -0.6771  0.2431 -0.4505
   44en-    CQM 1550   0.488   3.392   1.573 -0.4283 -0.0576  0.6463
   44en-    CQM 1551   0.496   3.332   1.700 -0.7252  0.2716 -0.0913
   44en-    CQM 1552   0.395   3.351   1.790 -0.0935 -0.1586  0.3690
   44en-    CQM 1553   0.407   3.298   1.921 -0.5593  0.7642  0.0231
   44en-    CQM 1554   0.523   3.228   1.956  0.9890 -0.2400 -0.1380
   44en-    CQM 1555   0.624   3.209   1.863  0.2300  0.1421  0.0893
   44en-    CQM 1556   0.609   3.256   1.733 -0.2323 -0.1645 -0.1836
   44en-    CQM 1557   0.715   3.239   1.642 -0.1862  0.2795 -0.3208
   44en-    CQM 1558   0.705   3.306   1.510 -0.7305  0.2243 -0.2402
   44en-    CQM 1559   0.584   3.468   1.365  0.2819  0.4086 -0.2525
   44en-    HQM 1560   0.398   3.451   1.554  0.2180  0.2340 -1.5658
   44en-    HQM 1561   0.310   3.413   1.761 -1.6429 -3.3694 -2.1818
   44en-    HQM 1562   0.328   3.304   1.995 -0.7119 -0.1875 -0.0617
   44en-    HQM 1563   0.531   3.183   2.054 -3.0854  1.0280  0.8664
   44en-    HQM 1564   0.712   3.148   1.879 -0.4779 -1.3714 -1.5352
   44en-    HQM 1565   0.801   3.175   1.660  0.0471 -0.0057 -2.2991
   44en-    HQM 1566   0.498   3.533   1.351  1.4709  2.2805  0.8677
   44en-    CQM 1567   0.682   3.457   1.262 -0.5495  0.3719 -0.1943
   44en-    CQM 1568   0.794   3.372   1.287 -0.0571 -0.2925 -0.3989
   44en-    CQM 1569   0.892   3.368   1.191 -0.4452 -0.4427 -0.4490
   44en-    CQM 1570   0.886   3.447   1.075  0.6623  0.0319  0.4735
   44en-    CQM 1571   0.986   3.439   0.976 -0.1965 -0.0287 -1.1293
   44en-    CQM 1572   0.978   3.509   0.857 -0.2218 -0.8192 -1.1920
   44en-    CQM 1573   0.866   3.593   0.840 -0.0307  0.1689 -0.4265
   44en-    CQM 1574   0.771   3.610   0.940 -0.3747 -0.8571 -0.0615
   44en-    CQM 1575   0.780   3.540   1.058 -0.0945 -0.7569  0.2883
   44en-    CQM 1576   0.678   3.544   1.152  0.5380  1.0559 -0.2751
   44en-    HQM 1577   0.588   3.601   1.130  0.3824  1.0180  0.2497
   44en-    HQM 1578   0.680   3.667   0.922  0.7956  1.2590  0.5564
   44en-    HQM 1579   0.856   3.651   0.749  1.7976  3.1120  1.1982
   44en-    HQM 1580   1.053   3.502   0.780  1.2537 -1.7621  0.3051
   44en-    HQM 1581   1.075   3.377   0.987  0.6532  1.4259  0.4661
   44en-    HQM 1582   0.983   3.310   1.206  0.3710  0.9326  0.0099
   44en-    CQM 1583   0.811   3.300   1.413  1.3814 -0.6023 -0.0531
   44en-    HQM 1584   0.897   3.236   1.432  0.3907 -1.4326  1.7299
   45en-    CQM 1585   3.105   0.189   2.888 -0.5165 -0.3726  0.1493
   45en-    CQM 1586   2.998   0.140   2.969  0.8550  0.4706 -0.1893
   45en-    CQM 1587   3.015   0.129   3.110  0.2436  0.2193  0.6525
   45en-    CQM 1588   2.914   0.087   3.196 -0.0653  0.0060 -0.1185
   45en-    CQM 1589   2.933   0.084   3.334  0.6029 -0.2262  0.9727
   45en-    CQM 1590   3.053   0.129   3.386 -0.1453  1.1113 -0.3335
   45en-    CQM 1591   3.157   0.169   3.302  0.0529  0.3862  0.5407
   45en-    CQM 1592   3.133   0.174   3.164 -0.2288  0.6525  0.2322
   45en-    CQM 1593   3.242   0.211   3.081 -0.3004  0.2300 -0.0647
   45en-    CQM 1594   3.223   0.237   2.946  0.7326 -0.4644  0.2783
   45en-    CQM 1595   3.086   0.218   2.755  0.0056  0.3244 -0.8150
   45en-    HQM 1596   2.906   0.106   2.924 -0.9768  0.9624  3.0665
   45en-    HQM 1597   2.822   0.053   3.149 -1.4786  0.2899  2.3858
   45en-    HQM 1598   2.853   0.056   3.402  0.5864  1.4153  1.6353
   45en-    HQM 1599   3.069   0.133   3.493  2.0615  1.7390 -0.6503
   45en-    HQM 1600   3.254   0.184   3.348 -0.6327  0.4394  2.0088
   45en-    HQM 1601   3.332   0.240   3.135 -1.0519 -0.1990  1.4471
   45en-    HQM 1602   2.994   0.181   2.712  1.7663 -0.7049 -3.7868
   45en-    CQM 1603   3.185   0.265   2.672 -0.6215 -0.1088  0.5183
   45en-    CQM 1604   3.309   0.297   2.726 -0.2417  0.3086  0.8889
   45en-    CQM 1605   3.409   0.355   2.644 -0.4853  0.6169 -0.2906
   45en-    CQM 1606   3.391   0.369   2.505 -0.6644 -0.7520 -0.0203
   45en-    CQM 1607   3.488   0.444   2.431 -0.2506 -0.2043 -0.6664
   45en-    CQM 1608   3.471   0.448   2.292 -0.1742 -0.3987  0.7341
   45en-    CQM 1609   3.357   0.393   2.233  0.2734  0.4782 -0.4424
   45en-    CQM 1610   3.256   0.334   2.309 -0.2960 -0.0366 -0.0184
   45en-    CQM 1611   3.276   0.320   2.447 -0.3147  0.1525 -0.3029
   45en-    CQM 1612   3.175   0.267   2.531  0.2527 -0.2920  0.2616
   45en-    HQM 1613   3.083   0.232   2.484  1.1211 -2.4138  0.0804
   45en-    HQM 1614   3.165   0.300   2.261  0.3751 -2.0672  0.1164
   45en-    HQM 1615   3.340   0.407   2.127 -0.6144  0.9076 -0.2512
   45en-    HQM 1616   3.538   0.505   2.229  0.5272  0.0780  1.8926
   45en-    HQM 1617   3.575   0.485   2.480  0.5943 -1.2151 -1.2939
   45en-    HQM 1618   3.506   0.385   2.684 -0.0391  0.7542 -1.4671
   45en-    CQM 1619   3.327   0.287   2.866 -0.1849  0.6036 -0.2815
   45en-    HQM 1620   3.426   0.307   2.908  0.5268 -0.8000 -1.2468
   46en-    CQM 1621   0.587   3.713   2.933 -0.3388 -0.5561 -0.1626
   46en-    CQM 1622   0.489   3.726   3.028  0.0199  0.7328  0.1606
   46en-    CQM 1623   0.497   3.654   3.148  0.5776 -0.2610  0.0453
   46en-    CQM 1624   0.394   3.651   3.249  0.3763  0.6495 -0.1420
   46en-    CQM 1625   0.413   3.588   3.377 -0.7884 -0.5025 -0.4426
   46en-    CQM 1626   0.540   3.527   3.397 -0.2846  0.0851 -0.3420
   46en-    CQM 1627   0.636   3.523   3.300  0.0748 -0.3653 -0.8719
   46en-    CQM 1628   0.619   3.586   3.175  0.0504  0.3392 -0.0923
   46en-    CQM 1629   0.730   3.586   3.084  0.6912  0.5396 -0.0609
   46en-    CQM 1630   0.711   3.651   2.964  0.2316  0.8385 -0.0354
   46en-    CQM 1631   0.569   3.780   2.812 -0.7177  0.2184  0.6618
   46en-    HQM 1632   0.402   3.785   2.999  0.2948  1.2876  0.4665
   46en-    HQM 1633   0.305   3.713   3.242  0.4573  0.9883  1.5876
   46en-    HQM 1634   0.333   3.572   3.449 -1.0159  0.3795 -0.4926
   46en-    HQM 1635   0.568   3.469   3.485  1.5116 -0.8192 -1.4891
   46en-    HQM 1636   0.734   3.478   3.317  0.3272 -0.1254 -1.6279
   46en-    HQM 1637   0.826   3.547   3.118 -0.3244 -0.7402  1.4272
   46en-    HQM 1638   0.467   3.806   2.788 -0.5762 -0.1677 -0.3512
   46en-    CQM 1639   0.676   3.779   2.721  0.0096 -0.9369  0.3414
   46en-    CQM 1640   0.796   3.718   2.751  0.5733 -0.1671  0.3157
   46en-    CQM 1641   0.894   3.715   2.649  0.2327 -0.2627  0.4149
   46en-    CQM 1642   0.878   3.776   2.524  0.5361  0.1725  0.1690
   46en-    CQM 1643   0.979   3.761   2.422  0.1421  0.1122  0.0599
   46en-    CQM 1644   0.957   3.807   2.291  0.4080 -0.6620 -0.3571
   46en-    CQM 1645   0.835   3.866   2.261 -0.3287  0.3492 -0.2631
   46en-    CQM 1646   0.742   3.892   2.366 -0.3387 -0.5051 -0.3087
   46en-    CQM 1647   0.757   3.835   2.489 -0.1579  0.4083 -1.2926
   46en-    CQM 1648   0.657   3.833   2.587  0.5637  0.1407 -0.0879
   46en-    HQM 1649   0.557   3.869   2.565  0.9362  1.5041  0.3863
   46en-    HQM 1650   0.654   3.944   2.330 -0.1822 -0.6280 -0.8703
   46en-    HQM 1651   0.817   3.887   2.156  1.7090 -2.5828 -1.2760
   46en-    HQM 1652   1.036   3.808   2.217  0.5895  0.9407 -0.1633
   46en-    HQM 1653   1.072   3.711   2.446 -0.0200  0.1808  0.8512
   46en-    HQM 1654   0.981   3.651   2.659  0.0270 -0.8317 -1.2364
   46en-    CQM 1655   0.810   3.651   2.870  0.2885  0.1949 -0.6291
   46en-    HQM 1656   0.900   3.591   2.883 -1.3118 -1.9981  0.7395
   47en-    CQM 1657   0.004   0.564   4.279 -0.2402 -0.6591  0.0847
   47en-    CQM 1658  -0.099   0.507   4.360 -0.3915 -0.9670 -0.6814
   47en-    CQM 1659  -0.076   0.486   4.498 -0.5708  0.1461  0.0544
   47en-    CQM 1660  -0.177   0.444   4.583  1.1557  0.6980  0.0924
   47en-    CQM 1661  -0.154   0.426   4.721 -0.5127 -0.1429 -0.0493
   47en-    CQM 1662  -0.031   0.469   4.772  0.0189 -0.7976  0.2929
   47en-    CQM 1663   0.073   0.518   4.689 -0.2075  0.1294 -0.5452
   47en-    CQM 1664   0.047   0.520   4.551  0.1575 -0.6122  0.1620
   47en-    CQM 1665   0.148   0.584   4.474 -0.3288 -0.0911 -0.5397
   47en-    CQM 1666   0.127   0.607   4.337 -0.6024  0.0481  0.1242
   47en-    CQM 1667  -0.012   0.573   4.141 -0.8751 -0.0156  0.3527
   47en-    HQM 1668  -0.193   0.468   4.321  0.5105 -1.9767 -1.8715
   47en-    HQM 1669  -0.278   0.421   4.552  0.9620  0.6439  0.7424
   47en-    HQM 1670  -0.232   0.392   4.788 -2.5686  1.9930 -1.2921
   47en-    HQM 1671  -0.018   0.461   4.880 -1.7794  1.6906  0.7321
   47en-    HQM 1672   0.166   0.550   4.735 -0.1979 -2.2942  1.2149
   47en-    HQM 1673   0.236   0.622   4.525 -1.8426  0.1276  1.9781
   47en-    HQM 1674  -0.096   0.522   4.095  0.7707 -0.6551 -2.0277
   47en-    CQM 1675   0.086   0.630   4.060 -0.2516  1.1803 -0.0487
   47en-    CQM 1676   0.203   0.673   4.113  0.8209 -0.1017 -0.2739
   47en-    CQM 1677   0.304   0.735   4.035  0.5458 -0.4326 -0.2589
   47en-    CQM 1678   0.289   0.741   3.897  0.0613  0.6436  0.5358
   47en-    CQM 1679   0.381   0.807   3.818 -0.7743 -0.3872  0.2026
   47en-    CQM 1680   0.364   0.819   3.678  0.3078  0.7178 -0.5829
   47en-    CQM 1681   0.252   0.755   3.624 -0.7177 -0.3679 -0.0456
   47en-    CQM 1682   0.158   0.693   3.701  0.2133  0.9692 -0.1604
   47en-    CQM 1683   0.174   0.685   3.837 -0.6779  0.1405  0.1670
   47en-    CQM 1684   0.078   0.626   3.919 -0.2943  0.3262 -0.5123
   47en-    HQM 1685  -0.009   0.577   3.875 -1.4867  1.2121  0.8147
   47en-    HQM 1686   0.066   0.657   3.659  0.9032 -0.9661 -0.0453
   47en-    HQM 1687   0.223   0.784   3.523  3.0137  0.4324 -0.9698
   47en-    HQM 1688   0.432   0.872   3.612  2.0188 -0.4466  0.2074
   47en-    HQM 1689   0.467   0.860   3.857 -0.0628 -1.0607 -0.4401
   47en-    HQM 1690   0.399   0.767   4.076  2.2737 -2.8258 -2.2554
   47en-    CQM 1691   0.226   0.665   4.252  0.0262 -0.5668 -0.1611
   47en-    HQM 1692   0.322   0.693   4.295  0.2742 -0.9945 -0.4336
   48en-    CQM 1693   0.287   0.208   4.297 -0.1489 -0.5854  0.1181
   48en-    CQM 1694   0.200   0.221   4.408  0.1303 -0.4889 -0.1341
   48en-    CQM 1695   0.234   0.159   4.528  0.4225 -0.0420  0.1393
   48en-    CQM 1696   0.142   0.162   4.635 -0.6351 -0.7302  0.0115
   48en-    CQM 1697   0.153   0.075   4.741 -0.5889 -0.6414  0.0520
   48en-    CQM 1698   0.273   0.004   4.757  0.6950 -0.5366 -0.2381
   48en-    CQM 1699   0.374   0.006   4.656  0.5304 -0.4567  0.3233
   48en-    CQM 1700   0.350   0.082   4.542 -0.1514 -0.6000 -0.2432
   48en-    CQM 1701   0.439   0.073   4.437 -0.1883 -0.4869  0.2505
   48en-    CQM 1702   0.410   0.141   4.314  0.7130  0.5739  0.5770
   48en-    CQM 1703   0.260   0.274   4.179  0.0077 -0.4581 -0.2383
   48en-    HQM 1704   0.109   0.280   4.401 -0.0276 -0.4876  1.6242
   48en-    HQM 1705   0.047   0.212   4.624 -0.8346 -0.8882  0.9811
   48en-    HQM 1706   0.074   0.052   4.812  0.2566 -1.2466  0.8040
   48en-    HQM 1707   0.290  -0.065   4.839 -1.7431 -1.3290 -0.3747
   48en-    HQM 1708   0.467  -0.046   4.673 -0.2984 -1.5572  1.5829
   48en-    HQM 1709   0.534   0.022   4.444 -0.2100 -0.7571 -1.3198
   48en-    HQM 1710   0.163   0.321   4.167 -0.7407 -1.2123  2.4150
   48en-    CQM 1711   0.351   0.280   4.070 -0.7188 -0.0865  0.0647
   48en-    CQM 1712   0.476   0.209   4.092  0.4398  0.9810 -0.0692
   48en-    CQM 1713   0.579   0.210   3.994  0.2701  0.1924  0.0748
   48en-    CQM 1714   0.556   0.276   3.871 -0.3880 -0.2228  0.2262
   48en-    CQM 1715   0.655   0.278   3.767  0.3167 -1.2336  0.1374
   48en-    CQM 1716   0.636   0.355   3.651  0.8570  0.0470  0.4460
   48en-    CQM 1717   0.512   0.428   3.629 -0.8624  0.5468 -0.9784
   48en-    CQM 1718   0.411   0.419   3.732  0.6058 -0.7018 -0.9393
   48en-    CQM 1719   0.430   0.345   3.850  0.4375  0.0754 -0.2190
   48en-    CQM 1720   0.327   0.343   3.946 -0.4743  0.1332 -1.0213
   48en-    HQM 1721   0.238   0.403   3.930 -0.7560 -0.0131 -0.0147
   48en-    HQM 1722   0.320   0.478   3.723  0.4958 -0.3577  1.9717
   48en-    HQM 1723   0.501   0.481   3.535 -0.5719  0.7436 -0.9003
   48en-    HQM 1724   0.718   0.352   3.579  0.4139 -0.2248 -0.0530
   48en-    HQM 1725   0.750   0.234   3.797  0.2669 -1.4207  0.0251
   48en-    HQM 1726   0.675   0.162   4.014  0.8917  1.7076  0.7605
   48en-    CQM 1727   0.502   0.140   4.212  0.5056 -0.0363  0.3423
   48en-    HQM 1728   0.595   0.087   4.228 -1.0898 -3.4236 -1.2267
   49en-    CQM 1729   0.057   0.892   5.702  0.5981  0.2999  0.0504
   49en-    CQM 1730  -0.046   0.834   5.783 -0.9674  0.0765  0.2072
   49en-    CQM 1731  -0.024   0.830   5.924  0.1597 -0.1628 -0.0746
   49en-    CQM 1732  -0.125   0.769   6.005 -0.3926  0.1298  0.0534
   49en-    CQM 1733  -0.106   0.749   6.143 -0.5631 -0.0970  0.5545
   49en-    CQM 1734   0.015   0.793   6.200 -0.3050  0.4521  0.7567
   49en-    CQM 1735   0.117   0.854   6.120 -0.2772 -0.3659  0.3116
   49en-    CQM 1736   0.090   0.875   5.985 -0.2508  0.1671 -0.3115
   49en-    CQM 1737   0.188   0.930   5.905 -0.1067 -0.4579 -0.1217
   49en-    CQM 1738   0.174   0.942   5.763 -0.5776 -0.0094  0.3787
   49en-    CQM 1739   0.036   0.905   5.566  0.5114  0.2755  0.2255
   49en-    HQM 1740  -0.138   0.797   5.738  0.0849  0.8950 -2.7566
   49en-    HQM 1741  -0.214   0.725   5.963  0.5442 -2.7141  0.9014
   49en-    HQM 1742  -0.186   0.710   6.206 -2.8711  1.1772 -1.4926
   49en-    HQM 1743   0.031   0.776   6.306 -0.2037 -3.6983  0.1575
   49en-    HQM 1744   0.210   0.886   6.168 -0.9023 -0.7742  1.8319
   49en-    HQM 1745   0.283   0.956   5.952 -0.1982 -0.8943  0.3168
   49en-    HQM 1746  -0.058   0.868   5.526 -0.7294  0.1748  3.0675
   49en-    CQM 1747   0.134   0.960   5.480  0.1843  0.4695 -0.5472
   49en-    CQM 1748   0.247   1.009   5.538 -0.8353 -0.8872  0.3111
   49en-    CQM 1749   0.343   1.062   5.458  0.4763 -0.3502  0.1583
   49en-    CQM 1750   0.326   1.072   5.319  0.0262  0.3337  0.3294
   49en-    CQM 1751   0.418   1.147   5.236  0.5029 -0.2971 -0.4673
   49en-    CQM 1752   0.390   1.150   5.097 -0.6957 -0.8300 -0.5624
   49en-    CQM 1753   0.273   1.097   5.044  0.2598 -0.0154  0.0947
   49en-    CQM 1754   0.183   1.032   5.124  0.4663  0.1913 -0.8417
   49en-    CQM 1755   0.206   1.023   5.259  0.2445  1.6628  0.5319
   49en-    CQM 1756   0.113   0.953   5.340 -0.5737 -0.5598 -0.2377
   49en-    HQM 1757   0.024   0.908   5.298 -0.2899  1.0907 -2.7298
   49en-    HQM 1758   0.091   0.990   5.085  1.2183 -2.4079  0.1232
   49en-    HQM 1759   0.248   1.095   4.939 -2.7282  0.2805  0.7495
   49en-    HQM 1760   0.458   1.201   5.030  1.7762 -1.5821  1.3109
   49en-    HQM 1761   0.514   1.185   5.269 -0.6332  0.4581  2.1515
   49en-    HQM 1762   0.441   1.093   5.494  0.0573  1.7963 -0.4633
   49en-    CQM 1763   0.269   1.001   5.681 -0.2295 -0.3367 -0.3472
   49en-    HQM 1764   0.360   1.050   5.717 -0.2420  0.8184 -1.8277
   50en-    CQM 1765   0.332   0.574   5.725 -0.3538  0.3549 -0.1774
   50en-    CQM 1766   0.231   0.567   5.823  0.4362 -0.3276 -0.7075
   50en-    CQM 1767   0.257   0.507   5.946 -0.1711 -0.6779  0.3628
   50en-    CQM 1768   0.149   0.508   6.036 -0.0682 -0.3239  0.3467
   50en-    CQM 1769   0.170   0.444   6.160  0.3368 -0.2163 -0.4520
   50en-    CQM 1770   0.294   0.384   6.189  0.1522 -0.3269  0.5106
   50en-    CQM 1771   0.403   0.387   6.099  0.4972  0.2088 -0.0777
   50en-    CQM 1772   0.381   0.446   5.976  0.9897 -0.3475 -0.6420
   50en-    CQM 1773   0.477   0.440   5.874  0.2837 -0.5086 -0.2432
   50en-    CQM 1774   0.459   0.509   5.751 -0.4988  0.0732 -0.7093
   50en-    CQM 1775   0.315   0.637   5.601  0.1383 -0.3092 -0.3125
   50en-    HQM 1776   0.136   0.616   5.804  0.5264  0.6121  1.1701
   50en-    HQM 1777   0.057   0.565   6.028  2.1926  3.1310 -2.4079
   50en-    HQM 1778   0.094   0.450   6.237 -0.0619 -0.4626 -0.8272
   50en-    HQM 1779   0.309   0.356   6.293  0.9828 -0.7497  0.2800
   50en-    HQM 1780   0.503   0.352   6.123  0.9314  1.4753 -0.0402
   50en-    HQM 1781   0.575   0.406   5.907  0.8603  0.4143 -0.9563
   50en-    HQM 1782   0.220   0.687   5.584  0.1606 -0.4969 -1.0024
   50en-    CQM 1783   0.415   0.638   5.500  0.1112 -0.6302 -0.0463
   50en-    CQM 1784   0.536   0.570   5.522  0.0043 -0.1212 -0.0597
   50en-    CQM 1785   0.627   0.563   5.417  0.2650  0.0109  0.3914
   50en-    CQM 1786   0.598   0.629   5.296 -0.1655 -0.2577  0.0570
   50en-    CQM 1787   0.693   0.624   5.194  0.5527 -0.0579  0.7362
   50en-    CQM 1788   0.675   0.682   5.069  0.5661  0.2858 -0.5047
   50en-    CQM 1789   0.555   0.748   5.053  0.2664  1.2671  0.6117
   50en-    CQM 1790   0.463   0.764   5.154  0.5308  0.2512 -0.1922
   50en-    CQM 1791   0.479   0.698   5.276 -0.7673 -0.8584  0.1344
   50en-    CQM 1792   0.387   0.704   5.381  0.0733 -0.1997  0.0943
   50en-    HQM 1793   0.297   0.764   5.374  0.9428  1.1107  0.0704
   50en-    HQM 1794   0.376   0.828   5.139 -0.2563 -0.9066 -0.6554
   50en-    HQM 1795   0.536   0.804   4.961  1.0847  0.3121 -0.1437
   50en-    HQM 1796   0.751   0.686   4.991 -1.1629  0.2759 -2.2426
   50en-    HQM 1797   0.789   0.576   5.208  2.1609  2.7359 -0.5100
   50en-    HQM 1798   0.728   0.522   5.425  0.6600  1.1280  1.4061
   50en-    CQM 1799   0.557   0.506   5.647 -0.5491 -0.2661  0.3749
   50en-    HQM 1800   0.655   0.469   5.676 -1.9865 -1.9382  3.2484
   51en-    CQM 1801   0.570   0.328   0.072  0.1843  0.0100  0.0242
   51en-    CQM 1802   0.463   0.276   0.139 -0.3878 -0.1183 -0.8559
   51en-    CQM 1803   0.474   0.265   0.275  0.0138 -0.1522 -0.7124
   51en-    CQM 1804   0.368   0.215   0.349 -0.8228  0.4166  0.2934
   51en-    CQM 1805   0.377   0.192   0.486 -0.1994  0.3835 -0.6670
   51en-    CQM 1806   0.500   0.214   0.554  0.5702  0.4602  0.7774
   51en-    CQM 1807   0.601   0.274   0.480 -0.1091 -0.1818  0.3885
   51en-    CQM 1808   0.592   0.303   0.347  0.1814  0.5656  0.2570
   51en-    CQM 1809   0.695   0.367   0.279 -0.5642  0.0019  0.4951
   51en-    CQM 1810   0.688   0.368   0.140  0.6401 -0.2269 -0.2223
   51en-    CQM 1811   0.559   0.332  -0.067 -0.0989  0.6854 -0.1850
   51en-    HQM 1812   0.382   0.237   0.079 -0.9577  0.0775 -0.2250
   51en-    HQM 1813   0.280   0.178   0.298  0.2819 -0.1367 -1.2570
   51en-    HQM 1814   0.301   0.143   0.547  1.9616  0.6179  2.3372
   51en-    HQM 1815   0.511   0.181   0.657  0.2542 -2.6517 -0.1342
   51en-    HQM 1816   0.695   0.294   0.531 -0.3319 -1.6193  1.3869
   51en-    HQM 1817   0.791   0.399   0.319 -0.1573 -0.6459  0.0639
   51en-    HQM 1818   0.471   0.293  -0.117  0.1287  1.1030 -0.9199
   51en-    CQM 1819   0.668   0.383  -0.138  0.0584 -0.0306  0.8796
   51en-    CQM 1820   0.786   0.425  -0.074  1.1849  0.4843 -0.2833
   51en-    CQM 1821   0.889   0.492  -0.148  0.5829 -0.2368 -0.2507
   51en-    CQM 1822   0.869   0.508  -0.288 -0.3243 -0.3404 -0.1095
   51en-    CQM 1823   0.958   0.584  -0.360 -0.2505  0.2262  0.3288
   51en-    CQM 1824   0.953   0.577  -0.501 -0.3441  0.3399 -0.6344
   51en-    CQM 1825   0.840   0.516  -0.559  0.6950  0.2515  0.3514
   51en-    CQM 1826   0.741   0.451  -0.487  0.4878  0.2096  0.0913
   51en-    CQM 1827   0.758   0.446  -0.348  0.1908  0.6777  0.1749
   51en-    CQM 1828   0.653   0.395  -0.278  0.6712 -1.4948 -0.9594
   51en-    HQM 1829   0.560   0.360  -0.323 -0.7353 -0.8150  1.3533
   51en-    HQM 1830   0.650   0.414  -0.532 -0.2079  0.2383  1.4506
   51en-    HQM 1831   0.821   0.536  -0.664 -0.8046 -1.0970  0.3447
   51en-    HQM 1832   1.028   0.635  -0.554  2.0525 -1.8756  0.2714
   51en-    HQM 1833   1.049   0.630  -0.322 -1.4184  2.6323  0.3603
   51en-    HQM 1834   0.975   0.536  -0.098  1.0477 -1.5560  0.1174
   51en-    CQM 1835   0.796   0.412   0.065  0.0642 -0.5105 -0.6234
   51en-    HQM 1836   0.880   0.449   0.122  0.3165 -0.5783 -0.9496
   52en-    CQM 1837   0.869   0.016   0.077 -0.1663 -0.4544  0.1958
   52en-    CQM 1838   0.766   0.018   0.169  0.0809  0.8122  0.4231
   52en-    CQM 1839   0.773  -0.040   0.296 -0.0057  0.5889 -0.2896
   52en-    CQM 1840   0.670  -0.028   0.386  1.0027  0.3479 -0.5877
   52en-    CQM 1841   0.685  -0.087   0.514  0.1717  0.0063 -0.5094
   52en-    CQM 1842   0.805  -0.136   0.560 -0.0251  0.5918  0.2727
   52en-    CQM 1843   0.914  -0.154   0.465 -0.1453  0.3203  0.4894
   52en-    CQM 1844   0.896  -0.100   0.332 -0.1337  0.3391 -0.0845
   52en-    CQM 1845   0.997  -0.116   0.238 -0.9098 -0.6742  0.2692
   52en-    CQM 1846   0.986  -0.057   0.111  0.4886  0.3114  0.3109
   52en-    CQM 1847   0.848   0.078  -0.047  0.3852  0.2202 -0.7985
   52en-    HQM 1848   0.672   0.070   0.152 -0.6045 -0.4003  0.4870
   52en-    HQM 1849   0.575   0.016   0.355  0.9703  0.9381  0.3189
   52en-    HQM 1850   0.600  -0.072   0.580  0.6671 -0.7228  0.3010
   52en-    HQM 1851   0.822  -0.145   0.667 -0.5738 -1.5213  0.2024
   52en-    HQM 1852   1.012  -0.178   0.503  0.4384  1.0285 -0.5456
   52en-    HQM 1853   1.087  -0.168   0.270  0.2440  2.4652  2.3992
   52en-    HQM 1854   0.766   0.146  -0.069 -0.2622 -0.4515 -0.4766
   52en-    CQM 1855   0.947   0.060  -0.141 -0.5882  0.0832  0.1456
   52en-    CQM 1856   1.064  -0.012  -0.112  0.2612  0.6908  0.0275
   52en-    CQM 1857   1.169  -0.024  -0.207 -0.0239  0.1830 -0.0659
   52en-    CQM 1858   1.140   0.036  -0.336 -0.0639  0.3485 -0.2119
   52en-    CQM 1859   1.234   0.023  -0.437 -0.2658 -0.1446  0.0433
   52en-    CQM 1860   1.219   0.087  -0.564 -0.5572  0.0366  0.2700
   52en-    CQM 1861   1.105   0.160  -0.591 -0.3891  0.5918 -0.0670
   52en-    CQM 1862   1.005   0.175  -0.491 -0.7628 -0.1872  0.1451
   52en-    CQM 1863   1.025   0.120  -0.364  0.3963 -0.1735  0.7616
   52en-    CQM 1864   0.930   0.127  -0.262  0.0058 -0.2773 -0.3283
   52en-    HQM 1865   0.837   0.179  -0.283  0.5668  1.4834  1.3354
   52en-    HQM 1866   0.913   0.228  -0.511 -0.4352  0.1622 -0.4585
   52en-    HQM 1867   1.100   0.210  -0.687  0.9692  1.4845  0.3094
   52en-    HQM 1868   1.296   0.073  -0.639 -1.3026 -1.7077 -0.1822
   52en-    HQM 1869   1.328  -0.029  -0.421 -0.8868 -1.1863  0.3676
   52en-    HQM 1870   1.263  -0.078  -0.193 -0.5059 -0.5310  0.4422
   52en-    CQM 1871   1.088  -0.065   0.014 -0.0138  0.3882 -0.1767
   52en-    HQM 1872   1.183  -0.115   0.033 -1.0636 -0.7574  2.2747
   53en-    CQM 1873   0.655   0.655   1.471  0.2728  0.7841 -0.3040
   53en-    CQM 1874   0.548   0.599   1.550  0.0157  0.4673 -0.2011
   53en-    CQM 1875   0.568   0.601   1.691 -0.1501  0.1590  0.3705
   53en-    CQM 1876   0.464   0.549   1.777  0.4602  0.3452  0.0963
   53en-    CQM 1877   0.482   0.548   1.914 -0.0955 -0.5479  0.7833
   53en-    CQM 1878   0.603   0.592   1.972 -0.3090  1.0063  0.1932
   53en-    CQM 1879   0.700   0.648   1.889  0.1283 -0.1313  0.1180
   53en-    CQM 1880   0.682   0.652   1.749 -0.1665  0.1021 -0.1825
   53en-    CQM 1881   0.789   0.705   1.664 -0.0113 -0.2961 -0.1541
   53en-    CQM 1882   0.780   0.707   1.523 -0.1081  0.2065  0.0503
   53en-    CQM 1883   0.626   0.662   1.333 -0.2227 -0.1063 -0.4383
   53en-    HQM 1884   0.456   0.559   1.508 -0.1601  0.4173  0.2296
   53en-    HQM 1885   0.376   0.500   1.739 -1.4203  1.5328  2.7691
   53en-    HQM 1886   0.403   0.504   1.975 -0.2916 -0.1761  0.7996
   53en-    HQM 1887   0.610   0.594   2.080 -0.6024  3.8174  0.1795
   53en-    HQM 1888   0.792   0.690   1.928 -0.4221  2.5004 -1.2971
   53en-    HQM 1889   0.881   0.735   1.713 -0.4003 -2.9287  2.3001
   53en-    HQM 1890   0.527   0.637   1.295  0.5389 -1.0009 -1.9131
   53en-    CQM 1891   0.721   0.712   1.244  0.1365  0.1070  0.1191
   53en-    CQM 1892   0.847   0.754   1.293 -0.0940 -0.9410 -0.5951
   53en-    CQM 1893   0.943   0.816   1.206 -0.0212 -0.1068  0.3842
   53en-    CQM 1894   0.914   0.835   1.067  0.1331  0.6033  0.1293
   53en-    CQM 1895   1.005   0.898   0.980  0.7726 -0.6042 -0.2216
   53en-    CQM 1896   0.979   0.919   0.850  0.3022 -1.2899 -0.1562
   53en-    CQM 1897   0.856   0.865   0.795 -0.8871  0.5501 -0.2857
   53en-    CQM 1898   0.764   0.796   0.879 -0.6255  0.4130  0.0999
   53en-    CQM 1899   0.792   0.781   1.016  0.6902  0.0530 -0.5284
   53en-    CQM 1900   0.702   0.718   1.105  0.6688 -0.0120 -0.5583
   53en-    HQM 1901   0.609   0.675   1.070  0.7300 -0.7701  0.1836
   53en-    HQM 1902   0.669   0.767   0.833 -0.5642  1.7915 -0.9263
   53en-    HQM 1903   0.827   0.890   0.693 -0.6143 -0.8758 -0.7310
   53en-    HQM 1904   1.054   0.968   0.789 -0.3104 -1.7132 -1.2712
   53en-    HQM 1905   1.100   0.936   1.017  1.7464 -1.7277 -1.5261
   53en-    HQM 1906   1.033   0.863   1.242  1.1661 -0.9059 -1.4211
   53en-    CQM 1907   0.875   0.752   1.428  0.8392  0.0573 -0.3081
   53en-    HQM 1908   0.963   0.804   1.465  0.1195  0.9014  0.2268
   54en-    CQM 1909   0.921   0.335   1.500  0.0957 -0.3710 -0.3038
   54en-    CQM 1910   0.821   0.337   1.596 -0.0747 -0.4611 -0.7151
   54en-    CQM 1911   0.840   0.272   1.719  0.5185  0.6122 -0.0086
   54en-    CQM 1912   0.739   0.284   1.814 -0.1568 -0.5661  0.3125
   54en-    CQM 1913   0.751   0.213   1.937 -0.0144 -0.2421 -0.1026
   54en-    CQM 1914   0.858   0.126   1.961  0.3987  0.1504 -0.1511
   54en-    CQM 1915   0.966   0.121   1.869 -0.4058 -0.0629  0.2686
   54en-    CQM 1916   0.955   0.192   1.744 -0.0999 -0.2975 -0.2366
   54en-    CQM 1917   1.054   0.199   1.648  0.1438  1.3742 -0.2500
   54en-    CQM 1918   1.034   0.263   1.520  0.6024  0.3513 -0.3684
   54en-    CQM 1919   0.895   0.390   1.375 -0.2264  0.3057 -0.3858
   54en-    HQM 1920   0.732   0.396   1.573 -0.2782 -0.3583  0.3339
   54en-    HQM 1921   0.649   0.341   1.794 -0.0819 -0.0898  1.2720
   54en-    HQM 1922   0.671   0.234   2.007 -0.2964 -0.2242 -0.4271
   54en-    HQM 1923   0.862   0.070   2.053 -0.5918 -0.0668 -0.2390
   54en-    HQM 1924   1.057   0.069   1.898  1.0310  2.7227  0.9485
   54en-    HQM 1925   1.147   0.146   1.667 -0.2452  0.8208  0.1080
   54en-    HQM 1926   0.808   0.452   1.356  0.1336 -0.1206 -3.7155
   54en-    CQM 1927   0.994   0.382   1.280  0.0282  0.2015  0.1041
   54en-    CQM 1928   1.117   0.319   1.305 -0.0981  1.1205  0.4100
   54en-    CQM 1929   1.216   0.307   1.212  0.4043 -0.2454 -0.1703
   54en-    CQM 1930   1.202   0.368   1.083  0.8128 -0.0018 -0.6552
   54en-    CQM 1931   1.308   0.369   0.993  0.6090 -0.3944 -0.0742
   54en-    CQM 1932   1.289   0.437   0.872  0.1452 -0.4456  0.3501
   54en-    CQM 1933   1.178   0.514   0.834 -0.0909  0.0017  0.5545
   54en-    CQM 1934   1.068   0.509   0.927 -0.2696 -0.4569  0.7624
   54en-    CQM 1935   1.084   0.438   1.055  0.1058 -0.6947 -0.5349
   54en-    CQM 1936   0.978   0.451   1.154 -0.8797  0.4925 -0.7380
   54en-    HQM 1937   0.883   0.498   1.132 -1.3799  0.4876  1.2844
   54en-    HQM 1938   0.979   0.565   0.902  0.1689 -0.2976 -0.4973
   54en-    HQM 1939   1.165   0.564   0.738 -0.3944  1.3755  1.2964
   54en-    HQM 1940   1.369   0.427   0.799  0.3798  2.6010  0.1258
   54en-    HQM 1941   1.399   0.311   1.005 -0.0157 -0.6926  3.8049
   54en-    HQM 1942   1.309   0.252   1.229  1.5175  1.4408 -0.6347
   54en-    CQM 1943   1.139   0.260   1.427  0.2770  1.1843 -0.4522
   54en-    HQM 1944   1.232   0.209   1.451 -0.7269  0.1314  1.3297
   55en-    CQM 1945   0.675   0.980   2.874  0.6750 -0.3744 -0.4988
   55en-    CQM 1946   0.570   0.924   2.958 -0.8339 -0.4368 -0.3976
   55en-    CQM 1947   0.584   0.923   3.104 -0.5520  0.4587  0.7873
   55en-    CQM 1948   0.482   0.872   3.183  0.5940 -0.1596 -0.0695
   55en-    CQM 1949   0.500   0.860   3.321 -0.1083 -0.4541 -0.1489
   55en-    CQM 1950   0.621   0.901   3.381  0.3814 -0.0503  0.0506
   55en-    CQM 1951   0.723   0.958   3.298 -0.8977  0.2389 -0.1572
   55en-    CQM 1952   0.709   0.965   3.158 -0.3115  0.5449  0.4752
   55en-    CQM 1953   0.811   1.021   3.075 -0.4712 -0.1184 -0.2718
   55en-    CQM 1954   0.796   1.026   2.934  0.8140  0.4984  0.2883
   55en-    CQM 1955   0.652   0.999   2.731 -1.2367  0.0809  0.2164
   55en-    HQM 1956   0.474   0.898   2.915 -0.7513 -1.2659 -0.0889
   55en-    HQM 1957   0.391   0.842   3.132  0.6750 -0.2246 -0.1763
   55en-    HQM 1958   0.427   0.811   3.385 -0.0845  0.1411  0.3312
   55en-    HQM 1959   0.632   0.895   3.489  0.3237  0.3614  0.0819
   55en-    HQM 1960   0.814   0.995   3.345 -0.1861  0.2773 -1.5143
   55en-    HQM 1961   0.903   1.049   3.126 -1.3726 -1.2718  2.0072
   55en-    HQM 1962   0.565   0.960   2.679 -0.9408  3.4116 -2.9038
   55en-    CQM 1963   0.756   1.059   2.655  0.1958 -0.0228 -0.9209
   55en-    CQM 1964   0.876   1.103   2.718 -0.2854  0.2611  0.1711
   55en-    CQM 1965   0.976   1.165   2.637 -0.2700  0.1775  0.0023
   55en-    CQM 1966   0.953   1.185   2.495 -0.4176 -0.0539 -0.0162
   55en-    CQM 1967   1.058   1.230   2.417  0.3284  0.8335 -0.1129
   55en-    CQM 1968   1.034   1.238   2.281  0.1922  0.1405  0.4108
   55en-    CQM 1969   0.908   1.209   2.222  0.0837  0.1586  0.0722
   55en-    CQM 1970   0.813   1.149   2.300  0.1111  0.6571 -0.1625
   55en-    CQM 1971   0.834   1.136   2.434 -0.0340  0.7522  0.1030
   55en-    CQM 1972   0.736   1.083   2.520 -0.5692  0.9718 -0.0699
   55en-    HQM 1973   0.643   1.044   2.479 -0.4985 -1.0518  1.6541
   55en-    HQM 1974   0.715   1.121   2.262  0.4399 -0.5271 -0.1552
   55en-    HQM 1975   0.889   1.220   2.116 -0.1357 -0.4136  0.0485
   55en-    HQM 1976   1.112   1.270   2.213 -1.6591 -0.6913 -2.1824
   55en-    HQM 1977   1.149   1.260   2.468  0.1049 -0.1860  0.9167
   55en-    HQM 1978   1.068   1.197   2.683  0.6193  1.1663 -2.3991
   55en-    CQM 1979   0.899   1.088   2.855 -0.9209  0.2368  0.7841
   55en-    HQM 1980   0.993   1.125   2.895  0.3494  0.2873 -2.1334
   56en-    CQM 1981   0.934   0.651   2.910 -0.8994  0.0280 -0.8670
   56en-    CQM 1982   0.839   0.650   3.012 -0.5573 -0.0749 -0.3037
   56en-    CQM 1983   0.858   0.587   3.131  0.1554 -0.7341  0.0727
   56en-    CQM 1984   0.760   0.600   3.232 -0.0320  0.3946  0.5594
   56en-    CQM 1985   0.781   0.527   3.349  0.3071 -0.0710 -0.3217
   56en-    CQM 1986   0.901   0.452   3.376  0.2224 -0.1035  0.0073
   56en-    CQM 1987   0.998   0.450   3.270 -0.1026 -0.3253  0.0236
   56en-    CQM 1988   0.974   0.512   3.146  0.7233  0.1038 -0.2219
   56en-    CQM 1989   1.071   0.505   3.048  0.6784  0.0582 -0.2223
   56en-    CQM 1990   1.052   0.577   2.930 -0.2046  0.4348 -0.0290
   56en-    CQM 1991   0.912   0.708   2.783 -0.5955 -0.3280  0.1853
   56en-    HQM 1992   0.753   0.715   3.001  0.1009  0.8698  0.0409
   56en-    HQM 1993   0.670   0.656   3.205 -0.8590 -2.0065 -1.8839
   56en-    HQM 1994   0.693   0.517   3.412 -0.2045 -2.2434 -1.3128
   56en-    HQM 1995   0.915   0.392   3.465 -1.3717 -1.5699 -0.6994
   56en-    HQM 1996   1.090   0.393   3.283  0.3138  0.5433  0.9451
   56en-    HQM 1997   1.157   0.439   3.058  0.3571 -0.2064  0.8181
   56en-    HQM 1998   0.821   0.763   2.763 -0.8657 -0.5332  0.8351
   56en-    CQM 1999   1.013   0.710   2.684  0.5031  0.0884  0.0526
   56en-    CQM 2000   1.138   0.644   2.714  0.5797 -0.4274  0.1100
   56en-    CQM 2001   1.236   0.648   2.613 -0.4687  0.2892  0.0402
   56en-    CQM 2002   1.210   0.709   2.487  0.4612  0.0686  0.1853
   56en-    CQM 2003   1.311   0.718   2.388  0.1584 -0.6820 -0.1860
   56en-    CQM 2004   1.283   0.788   2.271  0.2998 -0.2881 -0.3090
   56en-    CQM 2005   1.155   0.845   2.240  0.0414  0.5084  0.4528
   56en-    CQM 2006   1.056   0.822   2.336  0.3235 -0.3834  0.3982
   56en-    CQM 2007   1.083   0.768   2.462  0.0923 -0.2189 -0.7183
   56en-    CQM 2008   0.983   0.763   2.560 -0.3580 -0.0409 -0.5102
   56en-    HQM 2009   0.886   0.810   2.545 -0.4569  0.4320  1.4191
   56en-    HQM 2010   0.958   0.865   2.315  1.2677  1.7512  0.1932
   56en-    HQM 2011   1.143   0.905   2.151  0.9374 -0.8144 -0.5757
   56en-    HQM 2012   1.364   0.800   2.199  1.7267 -1.3456  1.0917
   56en-    HQM 2013   1.409   0.675   2.410  0.5392  0.3772  0.2323
   56en-    HQM 2014   1.330   0.595   2.623 -0.5055  0.1181 -0.5024
   56en-    CQM 2015   1.152   0.574   2.833 -0.1962  0.4181  0.4165
   56en-    HQM 2016   1.249   0.529   2.851  0.8395  2.0488 -0.9602
   57en-    CQM 2017   0.692   1.305   4.314 -0.3239  0.1976 -0.3277
   57en-    CQM 2018   0.588   1.263   4.402 -0.3087 -0.4952 -0.2173
   57en-    CQM 2019   0.610   1.262   4.540  0.3388  0.3541 -0.0757
   57en-    CQM 2020   0.513   1.208   4.622 -0.3709  0.0450 -0.1041
   57en-    CQM 2021   0.538   1.190   4.758 -0.0004 -0.4594 -0.1305
   57en-    CQM 2022   0.660   1.224   4.812 -0.5896 -0.3493 -0.3752
   57en-    CQM 2023   0.757   1.289   4.730  0.1435  0.7934  0.6532
   57en-    CQM 2024   0.735   1.294   4.591 -0.8852  0.1562  0.2821
   57en-    CQM 2025   0.838   1.332   4.508  0.1026  0.0316 -0.2621
   57en-    CQM 2026   0.817   1.344   4.371 -0.0962 -0.2791 -0.7836
   57en-    CQM 2027   0.673   1.321   4.174 -0.4077  0.1563  0.2240
   57en-    HQM 2028   0.503   1.224   4.347 -1.2000 -1.1885  1.6275
   57en-    HQM 2029   0.416   1.179   4.581 -0.3090  0.4048 -0.5072
   57en-    HQM 2030   0.470   1.125   4.810 -0.2788  1.5238  2.0792
   57en-    HQM 2031   0.673   1.195   4.916  0.5551 -1.0723 -0.7009
   57en-    HQM 2032   0.850   1.314   4.780 -0.4123 -0.4808  2.4055
   57en-    HQM 2033   0.932   1.373   4.544 -0.9723  0.4755  2.1059
   57en-    HQM 2034   0.581   1.287   4.126 -0.7352  2.2629 -0.6848
   57en-    CQM 2035   0.769   1.378   4.094  0.2512  0.8797  0.8298
   57en-    CQM 2036   0.889   1.429   4.149 -0.1150 -0.2129  0.2397
   57en-    CQM 2037   0.990   1.483   4.069  0.1166  0.4676 -0.0258
   57en-    CQM 2038   0.973   1.490   3.932 -0.4050  0.7461  0.2278
   57en-    CQM 2039   1.077   1.539   3.850 -0.6441  0.2034  0.1545
   57en-    CQM 2040   1.059   1.556   3.717 -0.2628 -0.0112  0.7087
   57en-    CQM 2041   0.944   1.505   3.655  0.0133 -0.2109  0.2096
   57en-    CQM 2042   0.840   1.449   3.729  0.0269 -0.4787 -0.4444
   57en-    CQM 2043   0.853   1.451   3.870 -0.2649  0.6672 -0.3120
   57en-    CQM 2044   0.757   1.391   3.954  0.0275  0.2726  0.2972
   57en-    HQM 2045   0.672   1.348   3.903 -0.0633  3.3824 -2.3463
   57en-    HQM 2046   0.747   1.418   3.684 -1.1752  1.6092  0.5042
   57en-    HQM 2047   0.930   1.510   3.547  0.5176 -2.1315  0.0355
   57en-    HQM 2048   1.143   1.582   3.653 -1.4625  0.4730 -0.6930
   57en-    HQM 2049   1.174   1.571   3.888 -0.4864 -0.0520 -0.0355
   57en-    HQM 2050   1.087   1.517   4.105  0.8263  1.5447 -2.8184
   57en-    CQM 2051   0.908   1.415   4.287 -0.4060  0.9131 -0.2659
   57en-    HQM 2052   1.002   1.459   4.320  1.1737 -1.5673 -1.3506
   58en-    CQM 2053   0.974   0.985   4.334 -0.3663  0.9550 -0.2893
   58en-    CQM 2054   0.874   0.996   4.432 -0.6062 -0.2691  0.7438
   58en-    CQM 2055   0.894   0.930   4.553 -0.2596 -0.4351  1.2746
   58en-    CQM 2056   0.794   0.932   4.643 -0.1906 -0.6230 -0.4308
   58en-    CQM 2057   0.819   0.869   4.769 -0.5034 -0.6298 -0.0844
   58en-    CQM 2058   0.937   0.791   4.791  0.7481 -0.1482  0.1850
   58en-    CQM 2059   1.029   0.773   4.687 -0.3639 -0.9634  0.0584
   58en-    CQM 2060   1.010   0.847   4.574  0.0758 -0.7916 -0.6561
   58en-    CQM 2061   1.107   0.836   4.477 -0.7325  0.1600  0.5400
   58en-    CQM 2062   1.091   0.907   4.360 -0.2283 -0.1471  0.3351
   58en-    CQM 2063   0.951   1.043   4.210 -0.4531  0.2030 -0.2291
   58en-    HQM 2064   0.779   1.047   4.412 -1.2626 -1.0839  1.7525
   58en-    HQM 2065   0.705   0.992   4.629  0.0227  0.1659  1.4905
   58en-    HQM 2066   0.750   0.892   4.850  1.7857  1.1401  1.4332
   58en-    HQM 2067   0.953   0.747   4.888  1.6323 -1.3015 -0.4788
   58en-    HQM 2068   1.120   0.716   4.708  0.5673 -0.2044 -1.7954
   58en-    HQM 2069   1.197   0.777   4.491 -0.2571  0.8746  0.5366
   58en-    HQM 2070   0.859   1.101   4.205 -0.7209 -0.3161 -1.6707
   58en-    CQM 2071   1.054   1.041   4.112  0.5983  0.5127  0.2180
   58en-    CQM 2072   1.170   0.966   4.136  0.8383 -0.2511  0.2087
   58en-    CQM 2073   1.276   0.970   4.039  0.3505  0.2679  0.1670
   58en-    CQM 2074   1.257   1.038   3.917 -0.3491 -0.3524 -0.5051
   58en-    CQM 2075   1.357   1.035   3.814  0.3760  0.8479 -0.2364
   58en-    CQM 2076   1.332   1.098   3.692  0.0107  0.1391 -0.1146
   58en-    CQM 2077   1.212   1.173   3.677 -0.4283 -0.4703 -0.1298
   58en-    CQM 2078   1.111   1.182   3.776 -0.0310  0.3778 -0.5131
   58en-    CQM 2079   1.137   1.114   3.895 -0.5587  0.7718  0.7049
   58en-    CQM 2080   1.034   1.106   3.990 -0.1799  0.8363  0.5148
   58en-    HQM 2081   0.933   1.141   3.972 -0.8321 -0.7167  1.1115
   58en-    HQM 2082   1.017   1.232   3.757 -0.2370  0.3498  0.4097
   58en-    HQM 2083   1.194   1.230   3.586 -2.6131 -0.3942  0.3283
   58en-    HQM 2084   1.407   1.103   3.614  0.4797 -0.6665  0.2800
   58en-    HQM 2085   1.450   0.983   3.831  0.3749  1.3647  1.4668
   58en-    HQM 2086   1.361   0.904   4.048 -0.6077 -0.9441  0.4765
   58en-    CQM 2087   1.187   0.898   4.257  0.6374 -0.3074 -0.8474
   58en-    HQM 2088   1.280   0.849   4.286  0.9460  0.1026 -1.1357
   59en-    CQM 2089   0.753   1.651   5.726 -0.0139 -0.4497  0.0574
   59en-    CQM 2090   0.656   1.597   5.803  0.0196 -0.1498  0.0584
   59en-    CQM 2091   0.680   1.576   5.941  0.3240  0.9031 -0.1366
   59en-    CQM 2092   0.579   1.522   6.021  0.3586 -0.3987 -0.5201
   59en-    CQM 2093   0.608   1.493   6.156  0.5746 -0.5148 -0.6056
   59en-    CQM 2094   0.728   1.540   6.214 -0.3318  0.0714  0.4081
   59en-    CQM 2095   0.833   1.592   6.135  0.4035 -0.3943 -0.1904
   59en-    CQM 2096   0.807   1.614   6.000 -0.6509 -0.3480 -0.0142
   59en-    CQM 2097   0.908   1.663   5.916 -0.6756  0.7806  0.1676
   59en-    CQM 2098   0.880   1.688   5.783 -0.5170  0.4183  1.2357
   59en-    CQM 2099   0.730   1.675   5.589  0.5246  0.7729 -0.2390
   59en-    HQM 2100   0.560   1.566   5.762  1.0998 -1.3775 -1.5989
   59en-    HQM 2101   0.490   1.484   5.973  0.3796 -1.6446  0.4096
   59en-    HQM 2102   0.531   1.450   6.220  1.2142  1.7328  1.7448
   59en-    HQM 2103   0.743   1.532   6.322  0.2062  0.6993  0.3827
   59en-    HQM 2104   0.927   1.627   6.177 -1.8820  1.3015  3.7951
   59en-    HQM 2105   1.003   1.684   5.963  0.6016 -1.2277 -1.4096
   59en-    HQM 2106   0.636   1.646   5.543  0.6563  0.9983 -0.6523
   59en-    CQM 2107   0.830   1.722   5.505 -0.1309  0.2477  0.0409
   59en-    CQM 2108   0.952   1.755   5.555  0.5877 -0.0192  0.3299
   59en-    CQM 2109   1.056   1.811   5.477  0.0549  0.2267  0.0694
   59en-    CQM 2110   1.040   1.811   5.337 -0.1587 -0.1536 -0.2332
   59en-    CQM 2111   1.147   1.854   5.260 -0.3283  0.1023 -0.0294
   59en-    CQM 2112   1.128   1.865   5.121  0.0610  0.3926  0.1342
   59en-    CQM 2113   1.010   1.818   5.058  0.3885 -0.8047 -0.3155
   59en-    CQM 2114   0.896   1.777   5.138 -0.1035  0.2728 -0.9460
   59en-    CQM 2115   0.921   1.766   5.280 -0.1548  0.2337 -0.5917
   59en-    CQM 2116   0.816   1.725   5.365 -0.0347 -0.7117 -0.7603
   59en-    HQM 2117   0.717   1.697   5.330 -0.1840 -0.5262 -0.4834
   59en-    HQM 2118   0.800   1.742   5.101 -1.4852 -0.0688  2.7701
   59en-    HQM 2119   0.996   1.820   4.951  0.1296  1.8227 -0.2665
   59en-    HQM 2120   1.214   1.893   5.060  0.5841 -2.6726 -0.6098
   59en-    HQM 2121   1.240   1.895   5.299  0.0989 -1.8204  1.0459
   59en-    HQM 2122   1.146   1.851   5.521  0.2748 -1.9543  1.7208
   59en-    CQM 2123   0.975   1.750   5.697 -0.1637 -0.3651 -0.0901
   59en-    HQM 2124   1.071   1.775   5.740 -1.3661  0.3344  2.3152
   60en-    CQM 2125   1.044   1.316   5.729  0.0309  0.1686  0.1794
   60en-    CQM 2126   0.946   1.322   5.829  0.2822  0.4018 -0.9172
   60en-    CQM 2127   0.962   1.249   5.944  0.0824 -0.8129  0.5086
   60en-    CQM 2128   0.859   1.266   6.036 -0.2899  0.1754  0.2462
   60en-    CQM 2129   0.876   1.210   6.163 -0.0283  0.8401 -0.1407
   60en-    CQM 2130   0.994   1.139   6.200  0.2691  0.5950 -0.1768
   60en-    CQM 2131   1.101   1.128   6.106  0.1056 -0.2854 -0.2834
   60en-    CQM 2132   1.083   1.181   5.974 -0.1297 -0.4621  0.3062
   60en-    CQM 2133   1.188   1.175   5.870  0.3582  0.0178 -0.4573
   60en-    CQM 2134   1.163   1.240   5.749  0.3258  0.1030  0.3163
   60en-    CQM 2135   1.016   1.388   5.613  0.4133 -0.0719 -0.0424
   60en-    HQM 2136   0.854   1.375   5.809  1.8851  3.5870 -0.2273
   60en-    HQM 2137   0.768   1.321   6.014 -1.4725 -2.0460 -0.6058
   60en-    HQM 2138   0.795   1.217   6.235 -1.2062 -0.0113 -1.3531
   60en-    HQM 2139   0.992   1.099   6.301 -0.4622 -0.5223 -0.6242
   60en-    HQM 2140   1.195   1.080   6.132  0.0896  0.0137  0.3233
   60en-    HQM 2141   1.277   1.118   5.893  0.9061  1.4087  0.9467
   60en-    HQM 2142   0.923   1.444   5.600  2.1040  2.9294  0.3561
   60en-    CQM 2143   1.108   1.377   5.511 -0.2284 -0.3351 -0.0447
   60en-    CQM 2144   1.225   1.302   5.529 -0.2051 -0.2169 -0.2735
   60en-    CQM 2145   1.322   1.303   5.428 -0.7243 -0.4356 -0.6471
   60en-    CQM 2146   1.311   1.382   5.312  0.6644  0.4834 -0.4326
   60en-    CQM 2147   1.412   1.367   5.214 -0.3004  0.3481 -0.0967
   60en-    CQM 2148   1.384   1.422   5.090  0.5642 -0.5738 -0.0516
   60en-    CQM 2149   1.262   1.490   5.066  0.0226  0.1168  0.2000
   60en-    CQM 2150   1.166   1.505   5.165 -0.3942 -0.3695 -0.9006
   60en-    CQM 2151   1.195   1.455   5.295  0.3060 -0.3524 -0.2812
   60en-    CQM 2152   1.093   1.454   5.396 -0.2785  0.0715 -0.7226
   60en-    HQM 2153   0.997   1.502   5.377 -0.0520  0.3806 -1.1040
   60en-    HQM 2154   1.071   1.552   5.140 -1.4136 -1.2685  1.1138
   60en-    HQM 2155   1.238   1.526   4.966  0.3957 -2.1889 -0.7378
   60en-    HQM 2156   1.459   1.408   5.012  0.6234 -4.0872  0.5486
   60en-    HQM 2157   1.501   1.308   5.232 -1.1273 -0.3435  1.8545
   60en-    HQM 2158   1.416   1.255   5.455 -0.0176  1.5629  0.5525
   60en-    CQM 2159   1.258   1.238   5.648 -0.5540 -0.3051  0.2644
   60en-    HQM 2160   1.352   1.186   5.658 -0.2653  0.0380 -0.6609
   61en-    CQM 2161   0.648   1.101   0.068  0.9669  0.2768  0.0069
   61en-    CQM 2162   0.547   1.053   0.151 -0.2647 -0.9751  0.5233
   61en-    CQM 2163   0.566   1.047   0.291 -0.0818  0.1623  0.0808
   61en-    CQM 2164   0.467   0.985   0.367 -0.0474 -0.0377  0.6808
   61en-    CQM 2165   0.489   0.960   0.500  0.5315  0.1722  0.3828
   61en-    CQM 2166   0.606   1.009   0.565  0.4162 -0.1369  0.1793
   61en-    CQM 2167   0.712   1.060   0.488  0.0031 -0.5073 -0.0418
   61en-    CQM 2168   0.688   1.086   0.350  0.2510 -0.3695  0.0235
   61en-    CQM 2169   0.789   1.137   0.263 -0.3659 -0.6245 -0.2352
   61en-    CQM 2170   0.770   1.148   0.127  0.1061  0.3241 -0.4128
   61en-    CQM 2171   0.630   1.101  -0.072  0.1505 -0.4996  0.3849
   61en-    HQM 2172   0.452   1.022   0.109 -2.0714  1.1147  2.9342
   61en-    HQM 2173   0.376   0.942   0.326 -0.5194  1.0901  0.5232
   61en-    HQM 2174   0.416   0.892   0.544  0.4400  1.2461  1.9555
   61en-    HQM 2175   0.622   0.987   0.670  2.4808  1.6535  0.2774
   61en-    HQM 2176   0.807   1.090   0.532  0.3448 -1.0540 -0.4095
   61en-    HQM 2177   0.885   1.164   0.304 -0.0473 -0.7207 -0.9068
   61en-    HQM 2178   0.536   1.075  -0.119  0.3897  0.4793 -0.6677
   61en-    CQM 2179   0.730   1.154  -0.158 -0.0611  0.3332 -0.4376
   61en-    CQM 2180   0.848   1.199  -0.103 -0.2630  0.0339 -1.0842
   61en-    CQM 2181   0.949   1.259  -0.181 -0.0434  0.0891 -0.0887
   61en-    CQM 2182   0.927   1.279  -0.318 -0.0487 -0.0215 -0.3541
   61en-    CQM 2183   1.023   1.347  -0.390  0.0231 -0.3040  0.1766
   61en-    CQM 2184   0.999   1.373  -0.529  0.0470 -0.0612 -0.6368
   61en-    CQM 2185   0.891   1.321  -0.595  0.3214  0.6380 -0.1543
   61en-    CQM 2186   0.791   1.251  -0.518 -0.0134  0.1095  0.0337
   61en-    CQM 2187   0.809   1.227  -0.383 -0.4748 -0.3695  0.5284
   61en-    CQM 2188   0.714   1.164  -0.299 -0.2359  0.2286 -0.5462
   61en-    HQM 2189   0.623   1.120  -0.339 -0.0406  0.4609 -1.2518
   61en-    HQM 2190   0.697   1.220  -0.562  1.0596 -0.9463 -1.5485
   61en-    HQM 2191   0.872   1.344  -0.700 -2.7507  1.2445  0.4840
   61en-    HQM 2192   1.068   1.437  -0.584 -1.8213  2.0642 -0.6038
   61en-    HQM 2193   1.117   1.381  -0.347 -0.6651  1.0150  0.6448
   61en-    HQM 2194   1.032   1.305  -0.128  0.7193 -0.2214 -1.0010
   61en-    CQM 2195   0.870   1.193   0.040  0.7820  0.6921 -0.8789
   61en-    HQM 2196   0.956   1.246   0.080  0.6833  0.4425 -0.3404
   62en-    CQM 2197   0.924   0.768   0.093  0.7038  0.2751 -0.5335
   62en-    CQM 2198   0.820   0.761   0.185  1.0098 -0.4973 -0.4828
   62en-    CQM 2199   0.840   0.692   0.304 -0.1150 -0.6134  0.1259
   62en-    CQM 2200   0.729   0.678   0.394 -0.1487 -0.3412  0.1853
   62en-    CQM 2201   0.754   0.620   0.522 -0.7279 -0.2330  0.0781
   62en-    CQM 2202   0.878   0.554   0.544  0.7972 -0.9208  0.1854
   62en-    CQM 2203   0.982   0.559   0.449 -0.1293  0.4594 -0.2082
   62en-    CQM 2204   0.968   0.631   0.329  0.4117  0.1041  0.1729
   62en-    CQM 2205   1.076   0.642   0.243  0.3515 -0.2415  0.0729
   62en-    CQM 2206   1.056   0.714   0.120  0.4560 -0.8227 -0.0496
   62en-    CQM 2207   0.901   0.832  -0.026 -0.2598 -0.0655  0.6062
   62en-    HQM 2208   0.720   0.788   0.153 -0.7359 -3.4591  2.2910
   62en-    HQM 2209   0.633   0.721   0.367 -0.0523  1.3282  2.3467
   62en-    HQM 2210   0.684   0.612   0.604  0.6668 -1.8492  1.1501
   62en-    HQM 2211   0.879   0.491   0.633  2.3194 -1.0563  0.0885
   62en-    HQM 2212   1.080   0.514   0.463  0.4751  2.1396  1.1973
   62en-    HQM 2213   1.177   0.603   0.248 -0.2149 -1.3789  3.1888
   62en-    HQM 2214   0.802   0.869  -0.050 -0.1601  0.2120  0.6160
   62en-    CQM 2215   1.009   0.848  -0.115 -0.1212  0.8947 -0.0557
   62en-    CQM 2216   1.134   0.795  -0.094  0.0231  0.2315  0.3868
   62en-    CQM 2217   1.238   0.806  -0.191  0.3387 -0.4642 -0.2899
   62en-    CQM 2218   1.209   0.867  -0.317 -0.3795 -0.1783 -0.6000
   62en-    CQM 2219   1.297   0.844  -0.421  0.1075 -0.2880 -0.0314
   62en-    CQM 2220   1.265   0.880  -0.551  0.2491  0.5147 -1.0737
   62en-    CQM 2221   1.138   0.935  -0.582 -0.1946  0.1951 -0.3707
   62en-    CQM 2222   1.046   0.950  -0.473  0.2983  0.4881 -0.0045
   62en-    CQM 2223   1.082   0.914  -0.342 -0.3978  0.3639 -0.3632
   62en-    CQM 2224   0.984   0.915  -0.237  0.1778  0.5908 -0.3530
   62en-    HQM 2225   0.885   0.957  -0.257 -0.3904 -0.5961 -0.0678
   62en-    HQM 2226   0.947   0.993  -0.486  0.1322  0.0918 -0.0346
   62en-    HQM 2227   1.119   0.960  -0.685  0.0310 -0.4487 -0.5706
   62en-    HQM 2228   1.337   0.867  -0.632  0.5630  1.2549 -0.9138
   62en-    HQM 2229   1.391   0.796  -0.395 -0.4605 -0.2610  2.1276
   62en-    HQM 2230   1.330   0.751  -0.180  0.4965  0.0041  0.7833
   62en-    CQM 2231   1.158   0.727   0.027 -0.4283  0.6298  0.3498
   62en-    HQM 2232   1.257   0.687   0.046  0.4075  2.4399 -0.1353
   63en-    CQM 2233   0.693   1.405   1.483 -0.2784 -0.1237 -0.6902
   63en-    CQM 2234   0.596   1.343   1.560  0.0180  0.3193 -0.5555
   63en-    CQM 2235   0.618   1.341   1.695  0.2678  0.7445 -0.4591
   63en-    CQM 2236   0.528   1.273   1.783  0.3004  0.8037  0.7936
   63en-    CQM 2237   0.541   1.274   1.927 -0.1086  0.0785 -0.0427
   63en-    CQM 2238   0.654   1.330   1.982 -0.2527 -0.7580  0.1350
   63en-    CQM 2239   0.752   1.381   1.900 -0.0698  0.1254 -1.0858
   63en-    CQM 2240   0.733   1.392   1.759  0.3874  0.2984 -0.1543
   63en-    CQM 2241   0.826   1.457   1.675 -0.0502 -0.2460  0.4052
   63en-    CQM 2242   0.810   1.461   1.540  0.6707  0.4388 -0.4523
   63en-    CQM 2243   0.680   1.394   1.343  1.1294 -0.3820 -0.1106
   63en-    HQM 2244   0.509   1.294   1.517 -0.9019  0.4275  1.1609
   63en-    HQM 2245   0.438   1.233   1.738  0.1848  2.9268 -0.9334
   63en-    HQM 2246   0.465   1.220   1.982  0.3340  0.5636  1.0602
   63en-    HQM 2247   0.665   1.341   2.090  1.2143 -3.1385  0.2569
   63en-    HQM 2248   0.836   1.427   1.952 -1.9701  0.9614  1.3710
   63en-    HQM 2249   0.911   1.498   1.727  1.2157  1.1984 -2.7150
   63en-    HQM 2250   0.589   1.353   1.300  1.5878 -1.9917  0.3943
   63en-    CQM 2251   0.776   1.462   1.262  0.5888 -0.5435  0.1579
   63en-    CQM 2252   0.897   1.515   1.320  0.3818  0.0855  0.7084
   63en-    CQM 2253   0.991   1.573   1.241  0.2234 -0.2793 -0.0386
   63en-    CQM 2254   0.969   1.582   1.103 -0.4230 -0.3636 -0.0814
   63en-    CQM 2255   1.067   1.649   1.025 -0.2749 -0.0773  0.1146
   63en-    CQM 2256   1.053   1.650   0.884 -0.0467  0.0886  0.7994
   63en-    CQM 2257   0.934   1.607   0.826 -0.1617  0.6255 -0.0594
   63en-    CQM 2258   0.827   1.553   0.902 -0.5739  0.0777 -0.4170
   63en-    CQM 2259   0.849   1.538   1.045  0.5385 -0.0719 -0.4806
   63en-    CQM 2260   0.753   1.473   1.124  0.3700 -0.0459 -0.0129
   63en-    HQM 2261   0.656   1.439   1.089 -0.3850  1.5235  0.4757
   63en-    HQM 2262   0.731   1.523   0.859 -0.9916  0.7216  0.0557
   63en-    HQM 2263   0.930   1.609   0.718 -1.3169  0.9087 -0.0272
   63en-    HQM 2264   1.129   1.678   0.812 -0.3733 -1.3100 -0.1105
   63en-    HQM 2265   1.153   1.698   1.070  0.3759 -1.4672  0.4300
   63en-    HQM 2266   1.072   1.625   1.292  0.8508 -2.1677  0.9504
   63en-    CQM 2267   0.919   1.509   1.456  0.5703 -0.3986 -0.3006
   63en-    HQM 2268   1.010   1.551   1.497  0.2852 -0.0074 -0.0639
   64en-    CQM 2269   0.995   1.102   1.467  0.1701 -0.8542  0.5512
   64en-    CQM 2270   0.894   1.107   1.564 -0.0501  0.3741  0.7312
   64en-    CQM 2271   0.918   1.041   1.684 -0.4683  0.6557  0.1607
   64en-    CQM 2272   0.822   1.049   1.788 -0.4592  0.5799 -0.3912
   64en-    CQM 2273   0.849   0.982   1.907  0.4604 -0.3429  0.1594
   64en-    CQM 2274   0.972   0.917   1.936 -0.5642  0.2959  0.1401
   64en-    CQM 2275   1.076   0.930   1.840  0.1659 -0.5721  0.3828
   64en-    CQM 2276   1.044   0.981   1.714 -0.1778  0.2667  0.5164
   64en-    CQM 2277   1.143   0.979   1.616 -0.3417 -0.1939 -0.0366
   64en-    CQM 2278   1.117   1.037   1.489 -0.4544  0.0715 -0.2578
   64en-    CQM 2279   0.976   1.169   1.343  0.2256  0.2811  0.4584
   64en-    HQM 2280   0.797   1.147   1.539 -0.4631 -0.9569  0.1494
   64en-    HQM 2281   0.728   1.103   1.782 -1.2855 -0.5055  2.1160
   64en-    HQM 2282   0.768   0.965   1.977  1.2353 -3.5833  0.3560
   64en-    HQM 2283   0.995   0.863   2.027 -0.0257  2.2784  1.2242
   64en-    HQM 2284   1.168   0.874   1.859  1.2168  0.9319 -0.1644
   64en-    HQM 2285   1.242   0.943   1.641 -0.3943 -0.0937  0.3250
   64en-    HQM 2286   0.876   1.209   1.328 -0.2947 -0.7019  1.2857
   64en-    CQM 2287   1.071   1.165   1.238  0.6326  1.1417  0.3128
   64en-    CQM 2288   1.196   1.104   1.269 -0.3704  0.4017 -0.0131
   64en-    CQM 2289   1.295   1.098   1.173  0.4314  0.2356  0.3518
   64en-    CQM 2290   1.273   1.162   1.047  0.4346  0.6100 -0.1585
   64en-    CQM 2291   1.369   1.134   0.951 -0.5490 -0.2663 -0.2936
   64en-    CQM 2292   1.356   1.190   0.823 -0.2110  0.1536  0.0082
   64en-    CQM 2293   1.243   1.264   0.800  0.0036  0.6564  0.3243
   64en-    CQM 2294   1.148   1.296   0.895  0.1414  0.0867  0.8098
   64en-    CQM 2295   1.157   1.234   1.022  0.1861 -0.5435 -0.0217
   64en-    CQM 2296   1.049   1.233   1.113  0.7165 -0.1051 -0.6834
   64en-    HQM 2297   0.953   1.274   1.086  1.2537  0.5254 -1.6605
   64en-    HQM 2298   1.055   1.345   0.869  0.4771 -1.0217 -2.7704
   64en-    HQM 2299   1.227   1.297   0.698 -1.1489  0.6539  0.4957
   64en-    HQM 2300   1.418   1.156   0.740  0.0353 -0.7315  0.5463
   64en-    HQM 2301   1.465   1.086   0.967 -0.1043  0.7467  0.1729
   64en-    HQM 2302   1.380   1.033   1.186  0.3700 -0.1136 -0.9887
   64en-    CQM 2303   1.219   1.035   1.392 -0.0649 -0.5583 -0.2825
   64en-    HQM 2304   1.314   0.997   1.428  0.3273  0.6251 -0.0181
   65en-    CQM 2305   0.748   1.774   2.882  0.8336  0.2013  0.0320
   65en-    CQM 2306   0.648   1.719   2.967 -0.1132  0.6582 -0.5619
   65en-    CQM 2307   0.667   1.705   3.105  0.4310 -0.7297  0.1271
   65en-    CQM 2308   0.573   1.642   3.189 -0.2705  0.0561 -0.1042
   65en-    CQM 2309   0.608   1.614   3.321  0.2941 -0.5498 -0.5448
   65en-    CQM 2310   0.728   1.656   3.383 -0.3505  0.4163  0.3617
   65en-    CQM 2311   0.816   1.723   3.301 -0.1969  0.4297 -0.1703
   65en-    CQM 2312   0.798   1.732   3.158 -0.3259 -0.2848 -0.0566
   65en-    CQM 2313   0.898   1.782   3.076 -0.2984  0.4792 -0.2631
   65en-    CQM 2314   0.876   1.810   2.942 -0.1629  0.2503 -0.5175
   65en-    CQM 2315   0.730   1.773   2.742 -0.3645 -0.6036  0.2340
   65en-    HQM 2316   0.558   1.678   2.922  0.7678  0.9593 -2.6696
   65en-    HQM 2317   0.474   1.620   3.151 -0.1996 -0.4981  0.0210
   65en-    HQM 2318   0.522   1.585   3.382  0.4186  1.1304  0.4809
   65en-    HQM 2319   0.754   1.637   3.487  0.4124  2.3317  0.5383
   65en-    HQM 2320   0.909   1.757   3.346 -0.1234  1.0793 -0.8061
   65en-    HQM 2321   0.998   1.804   3.112 -0.5206  0.4921  0.3621
   65en-    HQM 2322   0.630   1.753   2.704  0.3513 -1.4721 -1.2401
   65en-    CQM 2323   0.835   1.823   2.661 -0.5074 -0.6718  0.1622
   65en-    CQM 2324   0.957   1.872   2.718  1.3508 -0.1050 -0.1665
   65en-    CQM 2325   1.051   1.925   2.628 -0.3331  0.4783  0.7350
   65en-    CQM 2326   1.032   1.933   2.490 -0.8063  0.4485  0.5551
   65en-    CQM 2327   1.134   1.974   2.399 -0.5061 -0.2199  0.0353
   65en-    CQM 2328   1.108   1.983   2.264 -0.4021  0.3698 -0.3680
   65en-    CQM 2329   0.981   1.945   2.216  0.2939 -0.4828  0.3655
   65en-    CQM 2330   0.875   1.907   2.304 -0.6127  0.0401  0.0790
   65en-    CQM 2331   0.909   1.890   2.440 -0.3064 -0.2807  0.0392
   65en-    CQM 2332   0.810   1.826   2.523 -0.0331  0.1198  0.6416
   65en-    HQM 2333   0.713   1.790   2.492  0.3396 -1.4334  1.2419
   65en-    HQM 2334   0.778   1.874   2.270  0.6769 -0.8971 -2.8539
   65en-    HQM 2335   0.955   1.954   2.111 -2.1006 -0.6919  0.9073
   65en-    HQM 2336   1.187   2.026   2.202 -1.1788  0.3864 -1.3597
   65en-    HQM 2337   1.225   2.011   2.446 -0.7000 -0.7686  0.8494
   65en-    HQM 2338   1.146   1.959   2.668 -0.3507  1.7269 -0.2635
   65en-    CQM 2339   0.977   1.865   2.858  0.3207  0.1408 -0.9929
   65en-    HQM 2340   1.072   1.895   2.901  0.0228 -0.9599  0.4880
   66en-    CQM 2341   1.040   1.447   2.895 -0.1561 -0.3918 -0.2262
   66en-    CQM 2342   0.939   1.445   2.997  0.2765 -0.5931  0.0616
   66en-    CQM 2343   0.952   1.373   3.116 -0.4289  0.2324 -0.1775
   66en-    CQM 2344   0.848   1.363   3.218  0.0427 -0.3058  0.5361
   66en-    CQM 2345   0.867   1.293   3.334  0.0702  0.0754 -0.1243
   66en-    CQM 2346   0.988   1.225   3.360  0.6263 -0.1682  0.1812
   66en-    CQM 2347   1.092   1.226   3.262 -0.0433  0.6473 -0.2569
   66en-    CQM 2348   1.074   1.300   3.143 -0.5923  0.5866  0.3249
   66en-    CQM 2349   1.175   1.305   3.045  0.6733 -0.2308 -0.6361
   66en-    CQM 2350   1.154   1.371   2.924 -0.1081 -0.0285 -0.0314
   66en-    CQM 2351   1.023   1.521   2.777  0.2810 -0.1126  0.3413
   66en-    HQM 2352   0.841   1.484   2.975 -0.0937 -0.5187  1.8435
   66en-    HQM 2353   0.757   1.422   3.213 -0.1351 -0.4445  1.8448
   66en-    HQM 2354   0.785   1.279   3.404 -1.0810 -1.3063 -1.7104
   66en-    HQM 2355   0.989   1.152   3.441 -1.9363 -1.7037 -1.1296
   66en-    HQM 2356   1.185   1.174   3.279  0.2054  1.1887  0.0427
   66en-    HQM 2357   1.268   1.254   3.067 -0.2936 -1.0929  1.6701
   66en-    HQM 2358   0.929   1.573   2.761  0.0363 -0.7972 -0.4710
   66en-    CQM 2359   1.125   1.513   2.680  0.7473  0.1948  0.3196
   66en-    CQM 2360   1.241   1.436   2.705  0.5759 -0.6177  1.1055
   66en-    CQM 2361   1.337   1.423   2.597  0.0834 -0.4066 -0.0481
   66en-    CQM 2362   1.312   1.482   2.469  0.0379  0.7138  0.3414
   66en-    CQM 2363   1.414   1.473   2.373 -0.6872 -0.3867  0.3364
   66en-    CQM 2364   1.393   1.545   2.257  0.0291  0.3035  0.0696
   66en-    CQM 2365   1.272   1.608   2.223 -0.1614 -0.6122 -0.4769
   66en-    CQM 2366   1.171   1.620   2.322 -0.1339  0.2207 -0.3586
   66en-    CQM 2367   1.190   1.555   2.448 -0.5719  0.5247  0.0454
   66en-    CQM 2368   1.099   1.574   2.556 -0.3670  0.1384  0.9709
   66en-    HQM 2369   1.017   1.641   2.532  0.1483  0.1152 -0.9836
   66en-    HQM 2370   1.080   1.673   2.297  1.2189  1.5675 -2.5545
   66en-    HQM 2371   1.272   1.663   2.129 -3.1800 -1.0110 -0.7701
   66en-    HQM 2372   1.461   1.533   2.173 -2.2763 -3.0314 -1.4177
   66en-    HQM 2373   1.504   1.414   2.384 -1.1541 -1.1115  0.2654
   66en-    HQM 2374   1.427   1.367   2.618 -0.0957 -0.3100  1.0479
   66en-    CQM 2375   1.259   1.367   2.826  0.1137 -0.0977  0.0268
   66en-    HQM 2376   1.352   1.314   2.845 -0.4387 -0.4057  1.9901
   67en-    CQM 2377   0.776   2.066   4.324 -0.2544 -0.0018 -0.4461
   67en-    CQM 2378   0.675   2.017   4.414  0.6456  1.0117 -0.0234
   67en-    CQM 2379   0.706   1.998   4.549  0.8463 -0.2806 -0.3521
   67en-    CQM 2380   0.607   1.945   4.635 -0.0577 -0.3002  0.0912
   67en-    CQM 2381   0.640   1.919   4.771 -0.1894 -0.4956  0.1997
   67en-    CQM 2382   0.768   1.946   4.815  0.8299 -0.1215  0.4182
   67en-    CQM 2383   0.858   2.011   4.733 -0.3190  0.2131 -1.1240
   67en-    CQM 2384   0.834   2.035   4.596  0.0631  0.2460 -0.1078
   67en-    CQM 2385   0.925   2.094   4.506 -0.3620  0.1348 -0.4876
   67en-    CQM 2386   0.897   2.110   4.370  0.5157 -0.4310  1.2098
   67en-    CQM 2387   0.744   2.088   4.190 -0.3448  0.0582 -0.3095
   67en-    HQM 2388   0.574   1.999   4.378  0.5901 -2.0413  1.4660
   67en-    HQM 2389   0.510   1.919   4.592 -0.4730  0.4119  0.5864
   67en-    HQM 2390   0.565   1.869   4.831 -0.4653 -0.6688 -0.2928
   67en-    HQM 2391   0.798   1.915   4.915  2.3419  1.5640  0.5162
   67en-    HQM 2392   0.951   2.049   4.775  1.1564 -2.1300 -2.1476
   67en-    HQM 2393   1.021   2.123   4.547 -0.5009  0.7172 -0.5756
   67en-    HQM 2394   0.647   2.060   4.151 -0.8057 -0.0555  0.8954
   67en-    CQM 2395   0.835   2.136   4.099  0.0992  0.3949 -0.2843
   67en-    CQM 2396   0.963   2.177   4.149 -0.3789  0.0796 -0.0279
   67en-    CQM 2397   1.059   2.229   4.070 -0.4046  0.3891 -0.0734
   67en-    CQM 2398   1.043   2.239   3.932  0.1386  0.2426 -0.4039
   67en-    CQM 2399   1.153   2.275   3.849  0.4636  0.4431  0.6563
   67en-    CQM 2400   1.136   2.276   3.706  0.4428  0.3757  0.7310
   67en-    CQM 2401   1.011   2.251   3.653  0.3247  0.1798  0.1984
   67en-    CQM 2402   0.900   2.212   3.735 -0.3186 -0.5583  0.3011
   67en-    CQM 2403   0.917   2.200   3.878 -0.0737 -0.1763 -0.0719
   67en-    CQM 2404   0.815   2.147   3.957 -0.2808  0.3736  0.0230
   67en-    HQM 2405   0.721   2.119   3.911 -0.7409 -0.8119  1.6139
   67en-    HQM 2406   0.805   2.182   3.692 -0.7250  0.7527  0.2458
   67en-    HQM 2407   0.998   2.273   3.548  2.6006  3.3883  0.4900
   67en-    HQM 2408   1.217   2.299   3.637  0.6467  1.8812  1.4545
   67en-    HQM 2409   1.250   2.294   3.893  0.0696  2.0841  0.8467
   67en-    HQM 2410   1.150   2.257   4.121 -0.4064  2.6966 -1.2851
   67en-    CQM 2411   0.986   2.176   4.288  0.3868 -0.8072  0.5778
   67en-    HQM 2412   1.082   2.207   4.328  2.0506 -1.4371 -2.7449
   68en-    CQM 2413   1.047   1.729   4.347 -0.1509 -0.5168  0.5370
   68en-    CQM 2414   0.945   1.741   4.442 -0.4280 -0.6241 -0.0355
   68en-    CQM 2415   0.958   1.669   4.564 -0.2217  0.2235 -0.2514
   68en-    CQM 2416   0.854   1.656   4.651 -0.2458 -0.3939  0.6204
   68en-    CQM 2417   0.871   1.587   4.770 -0.3059  0.1624  0.7095
   68en-    CQM 2418   0.986   1.518   4.799  0.0695 -0.5304 -0.3094
   68en-    CQM 2419   1.095   1.521   4.703 -0.0370 -0.6019  0.5024
   68en-    CQM 2420   1.076   1.597   4.587 -0.2865 -0.9292 -0.0883
   68en-    CQM 2421   1.180   1.597   4.491  0.5316  0.0159  0.3956
   68en-    CQM 2422   1.167   1.658   4.365  0.3538 -0.2255  0.3343
   68en-    CQM 2423   1.025   1.798   4.223 -0.4323  0.0651  0.1633
   68en-    HQM 2424   0.853   1.787   4.409 -0.6348 -2.8283 -2.7036
   68en-    HQM 2425   0.757   1.703   4.637 -1.7100 -3.6132 -0.7193
   68en-    HQM 2426   0.786   1.581   4.837  0.5733  0.0772  1.8492
   68en-    HQM 2427   0.994   1.453   4.886 -2.2471  0.3692  0.6264
   68en-    HQM 2428   1.186   1.464   4.719 -0.0955 -0.7213  0.4165
   68en-    HQM 2429   1.274   1.548   4.516 -0.5253 -0.8548  2.7948
   68en-    HQM 2430   0.941   1.865   4.204 -0.2669 -0.2925 -1.8202
   68en-    CQM 2431   1.124   1.804   4.124  0.4709 -0.6354 -0.1546
   68en-    CQM 2432   1.240   1.733   4.147 -0.0776 -0.4518  0.3224
   68en-    CQM 2433   1.344   1.743   4.050  0.3572  0.3771  0.2182
   68en-    CQM 2434   1.324   1.808   3.928 -0.8421  0.6156  0.4881
   68en-    CQM 2435   1.429   1.802   3.827  0.1116 -0.4872 -0.1260
   68en-    CQM 2436   1.404   1.864   3.704  0.0323 -0.4238  0.1535
   68en-    CQM 2437   1.275   1.926   3.686  0.6895  0.0442 -0.7934
   68en-    CQM 2438   1.178   1.935   3.788 -0.1835 -0.0606 -0.4806
   68en-    CQM 2439   1.205   1.873   3.909 -0.1263  0.8530  1.0689
   68en-    CQM 2440   1.109   1.875   4.005  0.5162 -0.1691  0.2636
   68en-    HQM 2441   1.012   1.917   3.982  0.5621  0.0527  0.4745
   68en-    HQM 2442   1.089   1.995   3.773 -0.4724 -0.9714 -2.6357
   68en-    HQM 2443   1.254   1.978   3.593  2.6065 -1.0763 -1.8798
   68en-    HQM 2444   1.478   1.863   3.625  1.1675  0.6492  1.1689
   68en-    HQM 2445   1.519   1.746   3.850  1.3237  0.9952 -1.1702
   68en-    HQM 2446   1.442   1.696   4.063 -1.0042 -1.9041  2.7685
   68en-    CQM 2447   1.264   1.660   4.268  0.8323 -0.8706 -0.0624
   68en-    HQM 2448   1.359   1.607   4.277 -0.3728 -2.8592  1.3590
   69en-    CQM 2449   0.819   2.422   5.717 -0.5949  0.7504  1.2410
   69en-    CQM 2450   0.718   2.371   5.804 -0.7150 -0.2384  0.7634
   69en-    CQM 2451   0.749   2.344   5.936  0.9424 -0.0443 -0.1928
   69en-    CQM 2452   0.652   2.297   6.017 -0.7131 -0.1526 -0.1326
   69en-    CQM 2453   0.683   2.267   6.153 -0.2248 -0.7666  0.1563
   69en-    CQM 2454   0.812   2.296   6.209  0.0806 -0.5926  0.3897
   69en-    CQM 2455   0.904   2.352   6.120 -0.1811 -0.3539  0.1450
   69en-    CQM 2456   0.880   2.378   5.984 -0.0715 -0.1026  0.3524
   69en-    CQM 2457   0.976   2.442   5.906  0.5274 -0.4485  0.0401
   69en-    CQM 2458   0.946   2.455   5.765  0.1331  0.0131  0.1114
   69en-    CQM 2459   0.791   2.433   5.577  0.2617 -0.2339 -0.8717
   69en-    HQM 2460   0.626   2.341   5.755  0.7872 -0.3623 -2.0961
   69en-    HQM 2461   0.558   2.266   5.973 -0.5551 -2.2859  0.9837
   69en-    HQM 2462   0.603   2.229   6.216 -2.2360 -0.8572 -2.3679
   69en-    HQM 2463   0.840   2.277   6.312  0.9975  0.4154  0.3356
   69en-    HQM 2464   1.003   2.378   6.158  0.8765  0.2666 -2.8745
   69en-    HQM 2465   1.068   2.474   5.954 -0.1928  0.2629  0.9731
   69en-    HQM 2466   0.692   2.395   5.553  0.4110 -0.6830 -0.7953
   69en-    CQM 2467   0.888   2.487   5.488 -0.6750  0.5328 -0.3672
   69en-    CQM 2468   1.009   2.534   5.538  0.4404  0.1180  0.2661
   69en-    CQM 2469   1.111   2.579   5.450  0.4513 -0.2468 -0.4062
   69en-    CQM 2470   1.088   2.587   5.314  0.1720  0.1756  0.0625
   69en-    CQM 2471   1.192   2.633   5.230 -0.3198  0.6283  0.6092
   69en-    CQM 2472   1.167   2.634   5.093  0.4805 -0.0833 -0.4865
   69en-    CQM 2473   1.038   2.596   5.040  0.6141  0.4408  0.1561
   69en-    CQM 2474   0.941   2.539   5.125 -0.3023 -0.3264  0.3216
   69en-    CQM 2475   0.965   2.540   5.262  0.2201 -0.2623 -0.1400
   69en-    CQM 2476   0.860   2.495   5.352 -0.3305 -0.8899 -0.1894
   69en-    HQM 2477   0.765   2.458   5.315 -0.4148 -0.1635 -0.6812
   69en-    HQM 2478   0.844   2.499   5.095 -0.1167 -0.6362  0.1281
   69en-    HQM 2479   1.026   2.596   4.932 -0.7858  0.4603  0.3114
   69en-    HQM 2480   1.244   2.682   5.034  0.3653  0.9699  0.1896
   69en-    HQM 2481   1.285   2.676   5.266  0.5971 -0.9814  0.1803
   69en-    HQM 2482   1.207   2.607   5.492 -0.7985  3.9200 -0.1567
   69en-    CQM 2483   1.033   2.525   5.678  0.6898 -0.3300  0.1882
   69en-    HQM 2484   1.124   2.566   5.722 -0.5671  2.5973  0.2141
   70en-    CQM 2485   1.106   2.095   5.708  0.3466 -0.3506 -0.3306
   70en-    CQM 2486   1.004   2.088   5.806 -0.1896 -0.3545  0.0705
   70en-    CQM 2487   1.031   2.023   5.928 -0.2136 -0.4069 -0.5528
   70en-    CQM 2488   0.939   2.015   6.029 -0.0441  0.0163  0.0988
   70en-    CQM 2489   0.960   1.940   6.146 -0.5213  0.9187  0.0975
   70en-    CQM 2490   1.087   1.879   6.162 -0.2545 -0.2488 -0.0365
   70en-    CQM 2491   1.183   1.896   6.062 -0.6756 -0.4332  0.7867
   70en-    CQM 2492   1.157   1.969   5.948 -0.0323  0.3606 -0.2152
   70en-    CQM 2493   1.261   1.981   5.855 -0.4888  0.8823 -0.2429
   70en-    CQM 2494   1.232   2.044   5.735 -0.2811 -0.0640  0.8234
   70en-    CQM 2495   1.076   2.160   5.587 -0.3882  0.2537  0.3571
   70en-    HQM 2496   0.913   2.143   5.785 -0.4091 -1.0278 -0.7379
   70en-    HQM 2497   0.845   2.066   6.013  0.2622  0.1163 -1.4027
   70en-    HQM 2498   0.883   1.930   6.221  0.6694  1.4424  1.4241
   70en-    HQM 2499   1.106   1.809   6.244  1.0611 -0.5683 -0.6010
   70en-    HQM 2500   1.282   1.854   6.077 -1.4724 -2.8425 -0.4848
   70en-    HQM 2501   1.352   1.925   5.878 -0.9456  0.6064  0.9062
   70en-    HQM 2502   0.974   2.196   5.579 -0.9564 -1.0910  1.3281
   70en-    CQM 2503   1.184   2.160   5.490  0.0109 -0.2421  0.4147
   70en-    CQM 2504   1.312   2.101   5.515  0.0024 -0.4559  0.3096
   70en-    CQM 2505   1.413   2.097   5.414 -0.0048  0.2656  0.3541
   70en-    CQM 2506   1.384   2.162   5.289 -0.2287 -0.0438  0.3252
   70en-    CQM 2507   1.472   2.154   5.188 -0.7474 -0.2743 -0.1957
   70en-    CQM 2508   1.450   2.230   5.068  0.6512  0.8302  0.7745
   70en-    CQM 2509   1.325   2.295   5.043 -0.0841 -0.1090  0.0863
   70en-    CQM 2510   1.223   2.284   5.145  0.2875 -0.6140 -0.3754
   70en-    CQM 2511   1.254   2.219   5.268  0.0437  0.3780  0.2150
   70en-    CQM 2512   1.158   2.225   5.369 -0.3753 -0.1293  0.0510
   70en-    HQM 2513   1.069   2.283   5.347  0.0186  0.4784  0.0488
   70en-    HQM 2514   1.132   2.341   5.128 -0.8366 -1.5100  2.3580
   70en-    HQM 2515   1.310   2.344   4.947 -1.7655  0.7225  0.7443
   70en-    HQM 2516   1.532   2.246   4.998 -0.1324 -0.6237 -0.5051
   70en-    HQM 2517   1.564   2.098   5.201 -0.6703 -0.9236 -3.0762
   70en-    HQM 2518   1.512   2.059   5.438  0.1298  0.3909 -0.0048
   70en-    CQM 2519   1.334   2.046   5.642  0.0840 -0.1733  0.1522
   70en-    HQM 2520   1.433   2.010   5.669  0.4742  0.2042 -0.7566
   71en-    CQM 2521   0.708   1.857   0.078  0.2723 -0.1457 -0.0331
   71en-    CQM 2522   0.612   1.799   0.162 -0.2481  0.0799 -0.7459
   71en-    CQM 2523   0.644   1.793   0.305 -0.5709  0.0485  0.9515
   71en-    CQM 2524   0.552   1.730   0.387  0.6614  0.2258  0.2139
   71en-    CQM 2525   0.573   1.708   0.524 -0.3783  0.3690 -0.3431
   71en-    CQM 2526   0.697   1.753   0.578  0.3105  0.1713  0.0682
   71en-    CQM 2527   0.788   1.825   0.495  0.2888 -0.2903  0.5533
   71en-    CQM 2528   0.755   1.853   0.356 -0.5229  0.4682  0.6756
   71en-    CQM 2529   0.846   1.918   0.273  0.5152  0.2909 -0.9484
   71en-    CQM 2530   0.828   1.917   0.136  0.1101  0.4772 -0.3489
   71en-    CQM 2531   0.692   1.865  -0.060  0.7734 -1.4682 -0.1281
   71en-    HQM 2532   0.514   1.769   0.128 -0.8753  0.8782  0.3412
   71en-    HQM 2533   0.462   1.699   0.334  0.2525  1.2669  0.2765
   71en-    HQM 2534   0.492   1.659   0.578 -1.5701  2.9074  0.2535
   71en-    HQM 2535   0.714   1.734   0.683  0.4199 -1.2012 -0.1900
   71en-    HQM 2536   0.878   1.863   0.542  0.4774 -0.4231  0.2948
   71en-    HQM 2537   0.938   1.955   0.318 -0.2531  2.0824 -0.8116
   71en-    HQM 2538   0.604   1.820  -0.105  0.0424 -0.0831 -0.0971
   71en-    CQM 2539   0.789   1.923  -0.142 -0.0218 -0.3802  0.2542
   71en-    CQM 2540   0.902   1.984  -0.086 -0.5060  0.3055 -0.5130
   71en-    CQM 2541   1.001   2.047  -0.160 -0.4113 -0.1408  0.0252
   71en-    CQM 2542   0.982   2.051  -0.299 -0.2081  0.3858 -0.3700
   71en-    CQM 2543   1.090   2.108  -0.378 -0.1020  0.0646  0.0081
   71en-    CQM 2544   1.077   2.116  -0.518  0.2531  0.2907  0.2504
   71en-    CQM 2545   0.952   2.076  -0.577 -0.1558 -0.3464  0.2941
   71en-    CQM 2546   0.846   2.022  -0.498  1.1162 -0.1094 -0.2275
   71en-    CQM 2547   0.861   2.012  -0.359 -0.3359  0.1958  0.4364
   71en-    CQM 2548   0.768   1.936  -0.280  0.1942 -0.3667  0.0817
   71en-    HQM 2549   0.678   1.893  -0.324  1.7339 -0.5212 -3.0063
   71en-    HQM 2550   0.754   1.988  -0.544  1.3846 -0.8923 -0.1973
   71en-    HQM 2551   0.944   2.095  -0.684 -0.3774  0.3278  0.4295
   71en-    HQM 2552   1.157   2.150  -0.582 -0.2357 -0.5767 -0.8441
   71en-    HQM 2553   1.180   2.145  -0.329 -0.1024  1.2453 -0.8783
   71en-    HQM 2554   1.093   2.083  -0.113  1.1147 -1.8413 -1.5888
   71en-    CQM 2555   0.920   1.976   0.052  0.2650 -0.0963  0.1928
   71en-    HQM 2556   1.009   2.023   0.092 -0.0998  1.5702 -0.8612
   72en-    CQM 2557   1.005   1.553   0.100 -0.0599 -0.2361 -0.3336
   72en-    CQM 2558   0.895   1.557   0.195 -0.0221  0.5045 -0.4755
   72en-    CQM 2559   0.909   1.480   0.313  0.7335 -0.3182  0.6087
   72en-    CQM 2560   0.803   1.482   0.407  0.3160  0.2671  0.2651
   72en-    CQM 2561   0.812   1.413   0.529 -0.2068  0.0532 -0.5080
   72en-    CQM 2562   0.931   1.335   0.551 -0.3317 -0.2955 -0.2296
   72en-    CQM 2563   1.032   1.329   0.452 -0.8743  0.2240 -0.2787
   72en-    CQM 2564   1.025   1.401   0.332  0.2554  0.1944 -0.1322
   72en-    CQM 2565   1.137   1.405   0.242  0.5225 -0.5311 -0.5281
   72en-    CQM 2566   1.123   1.487   0.128 -0.2841 -0.5859 -0.3427
   72en-    CQM 2567   0.991   1.616  -0.025  0.0609 -0.7863  0.0640
   72en-    HQM 2568   0.801   1.607   0.173 -0.7300  0.4463  2.2280
   72en-    HQM 2569   0.714   1.539   0.382  0.0785 -0.5397 -0.7773
   72en-    HQM 2570   0.728   1.417   0.598 -2.1556 -0.1444 -2.8094
   72en-    HQM 2571   0.942   1.284   0.646  1.2990  0.2947 -0.0751
   72en-    HQM 2572   1.112   1.257   0.455 -0.6560  0.4369 -0.8419
   72en-    HQM 2573   1.233   1.357   0.256 -0.1138 -1.2570  1.5264
   72en-    HQM 2574   0.896   1.659  -0.056  0.0125  0.3510  1.6774
   72en-    CQM 2575   1.095   1.622  -0.119  0.0636  0.2244  0.4560
   72en-    CQM 2576   1.211   1.561  -0.086  0.3288 -0.0704  0.1889
   72en-    CQM 2577   1.314   1.553  -0.182 -0.3190 -0.2586  0.0540
   72en-    CQM 2578   1.291   1.610  -0.309 -0.5905  0.3031 -0.8909
   72en-    CQM 2579   1.395   1.611  -0.408 -0.8748 -0.3617 -0.2764
   72en-    CQM 2580   1.367   1.676  -0.528  0.6251 -0.1881  0.1431
   72en-    CQM 2581   1.245   1.736  -0.558  0.4496  0.4919 -0.5780
   72en-    CQM 2582   1.149   1.745  -0.462  0.1001  0.5882 -0.2844
   72en-    CQM 2583   1.172   1.678  -0.340 -0.1766  0.0750 -0.1593
   72en-    CQM 2584   1.072   1.685  -0.244  0.6141  0.2609 -0.0029
   72en-    HQM 2585   0.978   1.737  -0.265  0.8746  2.0326  2.9406
   72en-    HQM 2586   1.052   1.789  -0.482 -0.2774 -0.6175 -1.1806
   72en-    HQM 2587   1.237   1.787  -0.654  0.9017  1.5540 -0.0592
   72en-    HQM 2588   1.450   1.681  -0.598  0.0290  0.6010 -0.5238
   72en-    HQM 2589   1.494   1.572  -0.383 -0.6314  0.0648 -0.5612
   72en-    HQM 2590   1.400   1.488  -0.169 -1.6932 -1.5347  3.3184
   72en-    CQM 2591   1.224   1.489   0.033  0.2336  0.7477 -0.3970
   72en-    HQM 2592   1.317   1.439   0.055 -0.7132 -1.3082 -0.8645
   73en-    CQM 2593   0.761   2.188   1.494 -0.0586  0.2270  0.6571
   73en-    CQM 2594   0.661   2.136   1.575 -0.3037  0.6492 -0.0974
   73en-    CQM 2595   0.688   2.126   1.716  0.3872 -0.5443  0.2566
   73en-    CQM 2596   0.597   2.057   1.802  0.4959  0.4983 -0.2269
   73en-    CQM 2597   0.622   2.038   1.934  0.0273 -0.0130  0.2886
   73en-    CQM 2598   0.739   2.093   1.987 -0.8880 -0.2249  0.2174
   73en-    CQM 2599   0.832   2.164   1.912  0.3201 -0.2701  0.4647
   73en-    CQM 2600   0.804   2.174   1.770  0.1900 -0.2251 -0.1268
   73en-    CQM 2601   0.908   2.226   1.688  0.3620 -0.3384  0.2655
   73en-    CQM 2602   0.886   2.231   1.550 -0.1366 -0.0564  0.3800
   73en-    CQM 2603   0.745   2.199   1.356  0.3247 -0.7143  0.3136
   73en-    HQM 2604   0.574   2.090   1.529 -0.9539 -1.4858  3.1428
   73en-    HQM 2605   0.508   2.009   1.762  1.0688 -0.1888 -0.7017
   73en-    HQM 2606   0.554   1.975   1.990  0.4773 -0.5147  0.2752
   73en-    HQM 2607   0.752   2.095   2.095 -0.7003 -0.7431  0.2034
   73en-    HQM 2608   0.920   2.216   1.949  0.2426  0.7336 -0.7084
   73en-    HQM 2609   0.995   2.274   1.731 -0.2905 -0.5907  1.9103
   73en-    HQM 2610   0.656   2.162   1.306  0.5747  1.7064 -2.0270
   73en-    CQM 2611   0.850   2.244   1.270  0.4115  0.1351 -0.7445
   73en-    CQM 2612   0.971   2.290   1.335  0.1169  0.1936  0.4215
   73en-    CQM 2613   1.071   2.342   1.248  0.9466  0.5937  0.0301
   73en-    CQM 2614   1.047   2.355   1.109 -0.1591 -0.2652 -0.3425
   73en-    CQM 2615   1.147   2.403   1.026  0.5058 -0.3759 -0.6355
   73en-    CQM 2616   1.126   2.394   0.886  0.6829  0.0917  0.2058
   73en-    CQM 2617   1.009   2.340   0.830  0.5365  0.2271 -0.2575
   73en-    CQM 2618   0.913   2.287   0.917 -0.2608 -0.2900  0.4014
   73en-    CQM 2619   0.929   2.304   1.053 -0.4711 -0.0509 -0.2651
   73en-    CQM 2620   0.835   2.244   1.136  0.4354  0.1727  1.1957
   73en-    HQM 2621   0.750   2.194   1.089  1.3887  0.8061 -1.3118
   73en-    HQM 2622   0.816   2.258   0.877 -0.5722 -2.5367  2.6741
   73en-    HQM 2623   0.995   2.332   0.723 -0.2972  1.8470 -0.2823
   73en-    HQM 2624   1.205   2.430   0.821  0.2154  0.1826 -0.3147
   73en-    HQM 2625   1.245   2.424   1.069 -0.8202  2.0194  1.3443
   73en-    HQM 2626   1.162   2.389   1.284  0.7857  1.4850 -0.7024
   73en-    CQM 2627   0.993   2.281   1.474  0.5567  0.1994  0.0809
   73en-    HQM 2628   1.093   2.297   1.512  0.7938 -1.1606  0.0559
   74en-    CQM 2629   1.061   1.842   1.527 -0.4892 -0.1871  0.3036
   74en-    CQM 2630   0.964   1.848   1.628  0.2504  0.1757  0.3692
   74en-    CQM 2631   0.982   1.779   1.747 -0.1061  0.4711  0.6910
   74en-    CQM 2632   0.889   1.779   1.845  0.4506 -0.4000  0.1116
   74en-    CQM 2633   0.894   1.707   1.966 -0.1046 -0.1439  0.2639
   74en-    CQM 2634   1.020   1.642   1.988  0.9092 -0.1145 -0.2934
   74en-    CQM 2635   1.127   1.644   1.895  0.1797  0.0553 -0.0551
   74en-    CQM 2636   1.109   1.712   1.771  0.2028  0.9625 -0.4218
   74en-    CQM 2637   1.207   1.711   1.666 -0.4755 -0.3537 -0.3084
   74en-    CQM 2638   1.185   1.785   1.549 -0.5577  0.1773 -0.1517
   74en-    CQM 2639   1.035   1.908   1.404  0.6032  0.0214  0.6700
   74en-    HQM 2640   0.872   1.901   1.604  0.5106 -0.2471 -1.7169
   74en-    HQM 2641   0.800   1.836   1.819  0.4244 -0.4500  0.0934
   74en-    HQM 2642   0.818   1.720   2.041  1.2813  0.0758  1.6604
   74en-    HQM 2643   1.047   1.594   2.082 -1.3761  0.3804  0.6485
   74en-    HQM 2644   1.217   1.584   1.907 -0.2656 -0.7040 -0.4519
   74en-    HQM 2645   1.306   1.673   1.687 -1.2108 -1.6391  0.9458
   74en-    HQM 2646   0.937   1.955   1.393  1.1497  1.3532  1.4156
   74en-    CQM 2647   1.127   1.908   1.300  0.2570 -0.4428 -0.3806
   74en-    CQM 2648   1.247   1.843   1.315 -0.4774  0.3727 -0.3146
   74en-    CQM 2649   1.348   1.851   1.219  0.5253 -0.4843  0.2544
   74en-    CQM 2650   1.323   1.923   1.099  0.0779  0.1327  0.2256
   74en-    CQM 2651   1.418   1.921   0.989  0.6632  0.5180  0.1685
   74en-    CQM 2652   1.391   1.985   0.867  0.3861  0.7761  0.6057
   74en-    CQM 2653   1.265   2.048   0.852  0.3454  0.3439 -0.2210
   74en-    CQM 2654   1.173   2.054   0.961  0.4071  0.3147 -0.7449
   74en-    CQM 2655   1.197   1.979   1.079 -0.0757  0.7691  0.2430
   74en-    CQM 2656   1.103   1.980   1.182 -0.2911 -0.2223 -0.2693
   74en-    HQM 2657   1.014   2.041   1.187  0.4624  0.8059  1.1098
   74en-    HQM 2658   1.080   2.109   0.947  1.1211  1.3825 -1.3584
   74en-    HQM 2659   1.243   2.090   0.755  1.2549  0.4974 -0.3617
   74en-    HQM 2660   1.460   1.990   0.784 -0.9194 -0.0948 -0.5531
   74en-    HQM 2661   1.513   1.870   0.996  0.6899  0.7887  1.8629
   74en-    HQM 2662   1.446   1.805   1.225  0.9749  0.3458 -0.6644
   74en-    CQM 2663   1.275   1.777   1.437 -0.5550  0.3342  0.8725
   74en-    HQM 2664   1.376   1.739   1.450 -1.7135 -3.6350 -0.9184
   75en-    CQM 2665   0.810   2.508   2.930  0.3162  0.2664  0.9321
   75en-    CQM 2666   0.714   2.455   3.010  0.3659  0.6220 -0.2777
   75en-    CQM 2667   0.732   2.438   3.150  0.2469 -0.3711  0.6869
   75en-    CQM 2668   0.638   2.383   3.234  0.3948 -0.2415 -0.2762
   75en-    CQM 2669   0.665   2.364   3.367  0.0646  0.0778 -0.7180
   75en-    CQM 2670   0.785   2.418   3.423 -1.0486  0.4168  0.1590
   75en-    CQM 2671   0.883   2.476   3.337  0.4928  0.2265 -0.4349
   75en-    CQM 2672   0.854   2.490   3.202 -0.0616  0.1284  1.1958
   75en-    CQM 2673   0.950   2.545   3.116  0.0932 -0.4395  0.0730
   75en-    CQM 2674   0.932   2.550   2.982 -0.2691 -0.2646  0.4791
   75en-    CQM 2675   0.790   2.523   2.789 -0.0319  0.3966 -0.7813
   75en-    HQM 2676   0.617   2.425   2.972  0.7932 -0.8840 -0.2153
   75en-    HQM 2677   0.544   2.349   3.190  0.0680  0.0979  0.1593
   75en-    HQM 2678   0.591   2.309   3.424  0.4886 -0.2391 -0.4732
   75en-    HQM 2679   0.804   2.409   3.530 -0.1214 -1.9610 -0.1672
   75en-    HQM 2680   0.975   2.512   3.382  0.1667  0.6688 -0.1094
   75en-    HQM 2681   1.042   2.586   3.156 -0.8301 -0.4534  2.2757
   75en-    HQM 2682   0.693   2.496   2.748 -0.2911  3.5833 -2.3746
   75en-    CQM 2683   0.887   2.582   2.708  0.1034 -0.5822  0.1070
   75en-    CQM 2684   1.007   2.620   2.767 -0.5274  0.6499  1.4741
   75en-    CQM 2685   1.112   2.663   2.682 -0.1595 -0.8371  0.3093
   75en-    CQM 2686   1.093   2.677   2.545  0.1872 -0.5046  0.1689
   75en-    CQM 2687   1.202   2.717   2.468  0.0025  0.3294  0.2056
   75en-    CQM 2688   1.184   2.732   2.332 -0.3427  0.1159 -0.0993
   75en-    CQM 2689   1.063   2.697   2.264 -0.1683 -0.5750 -0.6872
   75en-    CQM 2690   0.952   2.646   2.340 -0.8429  0.1003 -0.1453
   75en-    CQM 2691   0.971   2.643   2.484 -0.5572  0.2683  0.2930
   75en-    CQM 2692   0.872   2.594   2.564 -0.4650 -0.2860  0.0357
   75en-    HQM 2693   0.777   2.559   2.527 -0.7977 -2.3308  2.6373
   75en-    HQM 2694   0.855   2.619   2.301 -2.1702  2.4504  1.4301
   75en-    HQM 2695   1.048   2.708   2.157 -1.9110  2.2508 -0.2257
   75en-    HQM 2696   1.269   2.768   2.275  0.9793 -0.4284  1.5161
   75en-    HQM 2697   1.302   2.731   2.508  0.8401  2.9654 -2.6259
   75en-    HQM 2698   1.207   2.673   2.733 -0.3828 -2.8378  1.1378
   75en-    CQM 2699   1.036   2.604   2.904 -0.0756  0.2363 -0.8430
   75en-    HQM 2700   1.129   2.641   2.946  0.5797 -0.7044 -1.4526
   76en-    CQM 2701   1.079   2.194   2.913  0.1310 -0.6856 -0.6257
   76en-    CQM 2702   0.984   2.197   3.013 -0.5509  0.1456  0.4385
   76en-    CQM 2703   1.002   2.137   3.138  0.4982  0.5629  0.1401
   76en-    CQM 2704   0.904   2.132   3.234  0.2083 -0.5376 -0.1956
   76en-    CQM 2705   0.929   2.073   3.354  0.5698 -0.5164  0.2436
   76en-    CQM 2706   1.055   2.009   3.378 -0.1121  0.0156  0.1267
   76en-    CQM 2707   1.153   2.005   3.278 -0.2039  0.0729 -0.4656
   76en-    CQM 2708   1.129   2.076   3.159 -0.0973 -0.2001  0.2920
   76en-    CQM 2709   1.228   2.069   3.058  0.1112 -0.0149  0.0863
   76en-    CQM 2710   1.204   2.122   2.929 -0.2509  0.8524 -0.1675
   76en-    CQM 2711   1.055   2.255   2.785  0.2180 -0.3864 -0.5892
   76en-    HQM 2712   0.884   2.230   2.985 -1.1034 -1.6095  0.2862
   76en-    HQM 2713   0.803   2.159   3.204  0.6174 -0.0529 -1.1294
   76en-    HQM 2714   0.857   2.059   3.435  2.2069 -0.1153  1.8096
   76en-    HQM 2715   1.068   1.965   3.476 -0.6493 -0.7998 -0.1651
   76en-    HQM 2716   1.245   1.946   3.283 -0.2868  0.0235  0.4981
   76en-    HQM 2717   1.322   2.020   3.083 -0.0661  0.9375  2.7812
   76en-    HQM 2718   0.959   2.305   2.774  0.7373  1.0386  0.9918
   76en-    CQM 2719   1.152   2.254   2.688  0.1841  0.1747 -0.1330
   76en-    CQM 2720   1.273   2.186   2.703 -0.3357 -0.2453 -0.5022
   76en-    CQM 2721   1.369   2.173   2.602 -0.5178 -0.0823  0.0039
   76en-    CQM 2722   1.350   2.237   2.480 -0.1349  1.1316  0.4491
   76en-    CQM 2723   1.443   2.219   2.377 -0.0188 -0.1404 -0.2505
   76en-    CQM 2724   1.429   2.297   2.264 -0.0772 -0.4658 -0.2726
   76en-    CQM 2725   1.311   2.366   2.241  0.1788  0.4773 -0.0316
   76en-    CQM 2726   1.208   2.362   2.335  0.2367 -0.1714  0.1530
   76en-    CQM 2727   1.234   2.307   2.460 -0.2073 -0.1546  0.0329
   76en-    CQM 2728   1.133   2.311   2.557  0.5183  0.7327 -0.0629
   76en-    HQM 2729   1.037   2.353   2.531 -0.9574 -1.1732  2.0564
   76en-    HQM 2730   1.121   2.426   2.323  0.2453 -0.2168 -0.1591
   76en-    HQM 2731   1.296   2.431   2.155 -0.2426 -0.5806 -0.7681
   76en-    HQM 2732   1.507   2.303   2.189  0.1745 -1.9161 -0.1357
   76en-    HQM 2733   1.538   2.169   2.387 -0.0803 -0.2436 -0.1816
   76en-    HQM 2734   1.462   2.123   2.627  0.9143  2.7535  0.5416
   76en-    CQM 2735   1.300   2.121   2.825 -0.5457  0.2103 -0.5972
   76en-    HQM 2736   1.395   2.070   2.839 -0.4742  0.0989 -1.4069
   77en-    CQM 2737   0.853   2.850   4.304  0.5056  0.3439  0.1460
   77en-    CQM 2738   0.748   2.797   4.382 -0.1331 -0.2448  0.0830
   77en-    CQM 2739   0.767   2.789   4.525  0.2209 -0.6863 -0.0933
   77en-    CQM 2740   0.677   2.726   4.607  0.1017 -0.6111  0.0546
   77en-    CQM 2741   0.698   2.706   4.745  0.1404  0.2433 -0.0532
   77en-    CQM 2742   0.814   2.763   4.798  0.1428  0.7603 -0.2039
   77en-    CQM 2743   0.908   2.824   4.716 -0.3005 -0.3556  0.6026
   77en-    CQM 2744   0.885   2.840   4.582  0.1259  0.4297 -0.1588
   77en-    CQM 2745   0.982   2.901   4.503  0.3572 -0.0216  0.0134
   77en-    CQM 2746   0.968   2.896   4.363 -0.9288  0.8722 -0.0046
   77en-    CQM 2747   0.846   2.836   4.161  0.3338  0.9856  1.0024
   77en-    HQM 2748   0.660   2.752   4.336 -2.3880  2.6855  1.3290
   77en-    HQM 2749   0.590   2.678   4.563  0.4875  1.4371 -3.1198
   77en-    HQM 2750   0.629   2.644   4.801 -0.2140 -0.5017 -1.2980
   77en-    HQM 2751   0.842   2.744   4.901 -1.5471 -0.3555  0.0750
   77en-    HQM 2752   1.007   2.856   4.748  0.6858 -0.8275 -1.8842
   77en-    HQM 2753   1.071   2.949   4.544  0.3480 -0.3063  0.3714
   77en-    HQM 2754   0.768   2.775   4.116  2.1415 -3.7250  3.7968
   77en-    CQM 2755   0.945   2.892   4.086 -0.2255 -0.6646  0.1831
   77en-    CQM 2756   1.052   2.955   4.144 -0.4915  0.6114 -0.6742
   77en-    CQM 2757   1.147   3.017   4.062 -0.3672 -0.1426  0.0951
   77en-    CQM 2758   1.134   3.027   3.921  0.8675  0.2356  0.7281
   77en-    CQM 2759   1.229   3.095   3.843  0.0267 -0.3035 -0.3108
   77en-    CQM 2760   1.211   3.087   3.701 -0.0078  0.7705 -0.5430
   77en-    CQM 2761   1.099   3.032   3.645 -0.1622  0.0993 -0.3612
   77en-    CQM 2762   0.995   2.974   3.726  0.7243 -0.7798  0.1025
   77en-    CQM 2763   1.019   2.957   3.860 -0.4009  0.3342  0.0861
   77en-    CQM 2764   0.927   2.897   3.947  0.2565  0.2859 -0.0158
   77en-    HQM 2765   0.835   2.861   3.901 -0.2981 -0.7024  1.8158
   77en-    HQM 2766   0.914   2.922   3.677 -1.5788  1.3744  1.5051
   77en-    HQM 2767   1.088   3.038   3.537  3.0869  1.0998 -0.6943
   77en-    HQM 2768   1.278   3.149   3.643 -0.5411  0.5377 -1.4094
   77en-    HQM 2769   1.314   3.151   3.880 -0.2306 -0.3643  0.3688
   77en-    HQM 2770   1.237   3.056   4.108  0.4365  0.6889 -2.1100
   77en-    CQM 2771   1.073   2.948   4.281 -0.5909 -1.1785 -0.4266
   77en-    HQM 2772   1.168   2.983   4.322 -0.8157 -0.9920 -0.0567
   78en-    CQM 2773   1.125   2.512   4.302  0.1943 -0.4376 -0.0297
   78en-    CQM 2774   1.024   2.508   4.406  0.1836 -0.2673  0.9683
   78en-    CQM 2775   1.057   2.448   4.529  0.0957  0.5812 -0.1255
   78en-    CQM 2776   0.956   2.445   4.624 -0.5301  0.0140  0.2474
   78en-    CQM 2777   0.970   2.369   4.743 -0.0935  0.6431 -0.1107
   78en-    CQM 2778   1.095   2.307   4.773 -0.0476  0.2576 -0.1692
   78en-    CQM 2779   1.201   2.318   4.678 -0.5488 -0.5188  0.1020
   78en-    CQM 2780   1.182   2.383   4.554  0.4491 -0.5617 -0.6657
   78en-    CQM 2781   1.279   2.390   4.455  0.1182  0.5609 -0.9281
   78en-    CQM 2782   1.254   2.456   4.335  0.7415 -0.1875  0.5561
   78en-    CQM 2783   1.099   2.563   4.179  0.5185  0.1304  0.2750
   78en-    HQM 2784   0.925   2.546   4.384  0.5939  0.9413  1.2135
   78en-    HQM 2785   0.861   2.495   4.608 -0.9808 -0.7958  0.3498
   78en-    HQM 2786   0.889   2.377   4.815 -0.3989  0.3434 -0.4170
   78en-    HQM 2787   1.102   2.255   4.868 -2.2890 -2.1397 -1.2254
   78en-    HQM 2788   1.299   2.275   4.694 -0.5827 -0.6972 -0.1735
   78en-    HQM 2789   1.373   2.337   4.466 -0.2631 -0.0332 -0.5112
   78en-    HQM 2790   1.007   2.617   4.155 -0.4791 -1.3736  0.6270
   78en-    CQM 2791   1.201   2.562   4.082  0.1797  0.0317 -0.3977
   78en-    CQM 2792   1.330   2.505   4.107 -0.2065 -0.4314 -0.0703
   78en-    CQM 2793   1.434   2.500   4.014  0.5522 -0.8817 -0.0893
   78en-    CQM 2794   1.413   2.567   3.888  0.2388  0.6339 -0.4079
   78en-    CQM 2795   1.516   2.577   3.796 -0.2875  0.0665  0.1900
   78en-    CQM 2796   1.491   2.655   3.682 -0.1961 -0.3301  0.9917
   78en-    CQM 2797   1.364   2.702   3.647 -0.0262 -0.5452 -0.0867
   78en-    CQM 2798   1.260   2.681   3.737 -0.5763 -0.2673 -0.1849
   78en-    CQM 2799   1.284   2.626   3.863  0.1813 -0.4353  0.3991
   78en-    CQM 2800   1.182   2.623   3.957 -0.1824  0.4362 -0.0777
   78en-    HQM 2801   1.082   2.665   3.944  0.0516  1.3378  0.9082
   78en-    HQM 2802   1.161   2.724   3.721 -1.0047 -0.1289  2.6964
   78en-    HQM 2803   1.334   2.752   3.556  0.6438  0.4703  0.2358
   78en-    HQM 2804   1.578   2.669   3.618 -0.4786  0.7294  0.8289
   78en-    HQM 2805   1.611   2.525   3.808 -1.4147 -1.4679  2.9077
   78en-    HQM 2806   1.529   2.451   4.033  1.7016  0.8956 -1.1224
   78en-    CQM 2807   1.344   2.441   4.232 -0.3305 -1.0901  0.4210
   78en-    HQM 2808   1.437   2.392   4.259  1.4045  1.4841 -0.7012
   79en-    CQM 2809   0.916   3.183   5.722  0.5359  0.4905  0.4527
   79en-    CQM 2810   0.819   3.118   5.809  0.4470 -0.3013 -0.2405
   79en-    CQM 2811   0.834   3.118   5.951 -0.3559  0.3980 -0.6914
   79en-    CQM 2812   0.732   3.060   6.029  0.1615 -0.5002 -0.1134
   79en-    CQM 2813   0.755   3.048   6.166  0.4402 -0.6220 -0.4214
   79en-    CQM 2814   0.870   3.107   6.221  0.0873  0.0354 -0.2850
   79en-    CQM 2815   0.958   3.178   6.147 -0.0407  0.2585  0.5129
   79en-    CQM 2816   0.946   3.185   6.006 -0.1316 -0.3162  1.0229
   79en-    CQM 2817   1.046   3.248   5.928  0.1867 -0.0623 -0.4166
   79en-    CQM 2818   1.030   3.249   5.787 -0.6824  0.7524 -0.0527
   79en-    CQM 2819   0.897   3.182   5.588  0.6412  1.2910  0.2532
   79en-    HQM 2820   0.738   3.063   5.762 -0.0232 -0.2288  0.4741
   79en-    HQM 2821   0.652   3.006   5.979  0.3509  0.8962 -1.9712
   79en-    HQM 2822   0.676   2.995   6.219 -1.1280  0.7540 -1.3502
   79en-    HQM 2823   0.883   3.093   6.328 -1.1423 -0.7139 -0.2271
   79en-    HQM 2824   1.052   3.212   6.189 -0.1225 -0.3395  1.1954
   79en-    HQM 2825   1.138   3.286   5.970  0.2488  1.9270 -2.2892
   79en-    HQM 2826   0.816   3.131   5.538  0.6923  2.0162 -0.5842
   79en-    CQM 2827   0.997   3.246   5.504  0.3935  0.1513  1.1399
   79en-    CQM 2828   1.118   3.302   5.561  0.7687  0.7518 -0.2678
   79en-    CQM 2829   1.215   3.364   5.473  0.5095 -0.0966 -1.1523
   79en-    CQM 2830   1.189   3.374   5.338 -0.0517 -0.1371 -0.0354
   79en-    CQM 2831   1.290   3.428   5.254 -0.0261  0.1195 -0.1590
   79en-    CQM 2832   1.259   3.438   5.115  0.7070  0.6154 -0.1499
   79en-    CQM 2833   1.142   3.390   5.059 -0.1815 -0.2253 -0.1845
   79en-    CQM 2834   1.049   3.328   5.141  0.4138  0.5216 -0.4104
   79en-    CQM 2835   1.072   3.317   5.282 -0.4011  0.1409 -0.0674
   79en-    CQM 2836   0.979   3.255   5.363  0.2095 -0.3514 -0.0389
   79en-    HQM 2837   0.890   3.216   5.314  0.5741 -1.3651  0.0962
   79en-    HQM 2838   0.956   3.293   5.098 -0.8694  2.9100  0.3911
   79en-    HQM 2839   1.127   3.406   4.952 -0.0495 -1.1830 -0.3537
   79en-    HQM 2840   1.328   3.488   5.048  1.6862 -0.0292  0.3680
   79en-    HQM 2841   1.382   3.468   5.296  0.1198  0.4291 -0.7605
   79en-    HQM 2842   1.312   3.399   5.509  0.8594 -2.4264  0.2618
   79en-    CQM 2843   1.129   3.296   5.706 -0.0908  0.3114  0.6274
   79en-    HQM 2844   1.204   3.357   5.755 -0.0866  2.7725 -2.3199
   80en-    CQM 2845   1.173   2.865   5.702  0.2659 -0.3392  0.2464
   80en-    CQM 2846   1.075   2.863   5.803 -0.2479  0.0628  0.0659
   80en-    CQM 2847   1.091   2.800   5.918  0.3450  0.9849 -0.0653
   80en-    CQM 2848   0.993   2.804   6.019  0.1413 -0.1170 -0.2730
   80en-    CQM 2849   1.018   2.757   6.149 -0.0115  0.6956  0.4829
   80en-    CQM 2850   1.140   2.695   6.172  0.1666  0.2836  0.2682
   80en-    CQM 2851   1.234   2.679   6.071  0.7236 -0.7648 -0.3854
   80en-    CQM 2852   1.216   2.737   5.943  1.5326 -0.3255 -0.1326
   80en-    CQM 2853   1.312   2.732   5.843  0.2134 -0.3763 -0.3590
   80en-    CQM 2854   1.296   2.797   5.725  0.2280  0.7340  0.0108
   80en-    CQM 2855   1.156   2.934   5.584 -0.1853  0.3179  0.1843
   80en-    HQM 2856   0.989   2.929   5.792 -0.1016  0.3567  0.6782
   80en-    HQM 2857   0.900   2.855   5.997 -0.5853 -1.5453 -0.6033
   80en-    HQM 2858   0.952   2.766   6.235 -4.7390  0.1483 -2.8689
   80en-    HQM 2859   1.170   2.674   6.274 -2.1284 -0.3950  0.8404
   80en-    HQM 2860   1.332   2.634   6.087  1.4247  0.4465 -1.2001
   80en-    HQM 2861   1.412   2.695   5.865 -0.1389 -0.3220  1.4377
   80en-    HQM 2862   1.067   2.996   5.575  1.1600  2.0769 -1.4594
   80en-    CQM 2863   1.259   2.931   5.482 -0.2480  0.4955 -1.0115
   80en-    CQM 2864   1.378   2.857   5.504  0.7827 -0.9233 -0.6834
   80en-    CQM 2865   1.475   2.847   5.405  0.5702 -0.6429 -0.1060
   80en-    CQM 2866   1.457   2.912   5.283 -0.4041 -0.2856 -0.3590
   80en-    CQM 2867   1.559   2.910   5.185 -0.1832 -0.5123  0.2249
   80en-    CQM 2868   1.536   2.975   5.061 -0.4433  0.1256  0.7164
   80en-    CQM 2869   1.421   3.046   5.037  0.5886  0.0563  0.1612
   80en-    CQM 2870   1.322   3.056   5.137 -0.4018 -0.0772  0.0379
   80en-    CQM 2871   1.341   2.982   5.254 -0.8083  0.1330 -0.1747
   80en-    CQM 2872   1.236   2.983   5.351  0.0718  0.3805  0.2686
   80en-    HQM 2873   1.152   3.051   5.340 -0.5519  0.0264  2.6007
   80en-    HQM 2874   1.225   3.093   5.107 -0.6977 -0.0084  1.0642
   80en-    HQM 2875   1.394   3.099   4.946 -0.9327  2.3441  1.8803
   80en-    HQM 2876   1.611   2.973   4.983 -1.3688  0.0003 -0.1731
   80en-    HQM 2877   1.644   2.843   5.194  0.0132 -0.3037 -0.0522
   80en-    HQM 2878   1.569   2.793   5.411  0.7620 -0.0883  2.1841
   80en-    CQM 2879   1.393   2.788   5.627 -0.3758 -0.3513 -0.1772
   80en-    HQM 2880   1.475   2.718   5.642 -0.2623 -0.0754  0.5057
   81en-    CQM 2881   0.804   2.628   0.046  0.5793  0.2850 -0.2029
   81en-    CQM 2882   0.700   2.581   0.128  0.9029  0.0104 -0.3812
   81en-    CQM 2883   0.725   2.569   0.263 -0.2707 -0.5254 -0.3607
   81en-    CQM 2884   0.626   2.516   0.345 -0.1053 -0.0717  0.9071
   81en-    CQM 2885   0.650   2.496   0.481 -0.1195 -0.4068 -1.1192
   81en-    CQM 2886   0.774   2.529   0.539  0.4301  0.2567 -0.0664
   81en-    CQM 2887   0.875   2.585   0.458  0.1760  0.3328  0.0291
   81en-    CQM 2888   0.850   2.609   0.318  0.0169  0.1509 -0.1002
   81en-    CQM 2889   0.951   2.665   0.239 -0.0834  0.1343 -0.0414
   81en-    CQM 2890   0.929   2.666   0.102 -0.5645  0.6986 -0.7487
   81en-    CQM 2891   0.787   2.632  -0.091 -0.1748  0.1877  0.1149
   81en-    HQM 2892   0.614   2.537   0.078  1.3970 -1.1619 -0.2014
   81en-    HQM 2893   0.528   2.492   0.303  0.3738  1.3368 -1.0635
   81en-    HQM 2894   0.573   2.457   0.547  0.0968 -1.8981 -1.7403
   81en-    HQM 2895   0.797   2.507   0.643 -0.4780 -0.3781  0.0094
   81en-    HQM 2896   0.968   2.605   0.511 -0.6762  0.4195  1.5115
   81en-    HQM 2897   1.041   2.706   0.284 -1.6737  2.4415  1.1482
   81en-    HQM 2898   0.691   2.596  -0.126 -0.9618  3.1659 -0.9208
   81en-    CQM 2899   0.885   2.695  -0.173 -0.7388  0.2343  0.0921
   81en-    CQM 2900   1.010   2.740  -0.120  0.3500 -0.4602 -0.1445
   81en-    CQM 2901   1.105   2.804  -0.201  0.2044 -0.2485 -0.3550
   81en-    CQM 2902   1.069   2.842  -0.336 -0.2136  0.0863 -0.6800
   81en-    CQM 2903   1.157   2.911  -0.418  0.5266  0.5320 -0.7873
   81en-    CQM 2904   1.127   2.936  -0.548  0.9375  0.0640 -0.4782
   81en-    CQM 2905   1.008   2.887  -0.602  0.2185  0.5402  0.3507
   81en-    CQM 2906   0.918   2.812  -0.524  0.1737 -0.3602 -0.6053
   81en-    CQM 2907   0.948   2.794  -0.389 -0.6148  0.3102 -0.2747
   81en-    CQM 2908   0.860   2.718  -0.311  0.2231 -0.4154  1.1479
   81en-    HQM 2909   0.767   2.680  -0.352  0.3181  0.7262 -0.1402
   81en-    HQM 2910   0.821   2.782  -0.563 -1.5442  1.2453  2.2359
   81en-    HQM 2911   0.995   2.906  -0.709  0.9083  0.9545  0.3401
   81en-    HQM 2912   1.191   2.998  -0.611  0.8031 -0.1652 -0.8402
   81en-    HQM 2913   1.251   2.949  -0.381  0.0367  0.0043  1.0192
   81en-    HQM 2914   1.201   2.843  -0.168  0.0330  1.1168 -1.4099
   81en-    CQM 2915   1.033   2.712   0.017 -0.2802 -0.4760  0.4401
   81en-    HQM 2916   1.127   2.748   0.057 -0.4504  2.0943 -1.3627
   82en-    CQM 2917   1.061   2.294   0.091 -0.3034  0.4737 -0.0835
   82en-    CQM 2918   0.963   2.287   0.191 -0.9157  0.1730  0.0748
   82en-    CQM 2919   0.990   2.213   0.307 -0.0480 -1.3414 -0.5242
   82en-    CQM 2920   0.894   2.219   0.410  0.4044 -0.3369 -0.0642
   82en-    CQM 2921   0.916   2.155   0.530 -1.0888 -0.1651  0.5514
   82en-    CQM 2922   1.041   2.087   0.548 -0.6285  0.3506  0.3392
   82en-    CQM 2923   1.146   2.090   0.452 -0.1398  0.2463  0.3277
   82en-    CQM 2924   1.112   2.156   0.328  0.5855  0.3895  0.5196
   82en-    CQM 2925   1.212   2.162   0.229  0.5182 -0.5848  0.0221
   82en-    CQM 2926   1.189   2.234   0.108  0.7003  0.6445  0.4864
   82en-    CQM 2927   1.035   2.362  -0.029 -0.8226 -0.3022 -0.2529
   82en-    HQM 2928   0.866   2.335   0.183 -1.6478 -1.7001 -3.1682
   82en-    HQM 2929   0.800   2.273   0.401 -1.7367 -3.6097  1.9192
   82en-    HQM 2930   0.841   2.147   0.608 -1.6725  2.0641  0.2739
   82en-    HQM 2931   1.050   2.019   0.632  0.7176 -0.9685 -0.8330
   82en-    HQM 2932   1.232   2.025   0.462 -0.1326  0.3708  1.1058
   82en-    HQM 2933   1.308   2.120   0.257 -0.0347 -0.7871  1.7199
   82en-    HQM 2934   0.941   2.415  -0.044 -0.7196 -0.6670 -2.4312
   82en-    CQM 2935   1.135   2.366  -0.130  0.9693  0.3839  0.1224
   82en-    CQM 2936   1.257   2.308  -0.116  0.9684 -0.1534 -0.6046
   82en-    CQM 2937   1.360   2.315  -0.209  0.4240 -0.4175  0.2203
   82en-    CQM 2938   1.331   2.385  -0.330 -0.0526 -0.4135 -1.4648
   82en-    CQM 2939   1.426   2.382  -0.435 -0.2604 -0.3707 -1.1379
   82en-    CQM 2940   1.400   2.465  -0.544  0.0407 -0.6933 -0.3871
   82en-    CQM 2941   1.280   2.534  -0.559  0.2843 -0.3396  0.2531
   82en-    CQM 2942   1.177   2.521  -0.461 -0.7361 -0.7904 -0.1234
   82en-    CQM 2943   1.208   2.448  -0.348  0.3026 -0.9718  0.1826
   82en-    CQM 2944   1.106   2.438  -0.246 -1.1497  0.2195  0.1718
   82en-    HQM 2945   1.008   2.483  -0.255 -0.7100  1.0891 -0.4147
   82en-    HQM 2946   1.087   2.580  -0.471 -0.4073 -0.0974  0.9542
   82en-    HQM 2947   1.266   2.610  -0.636 -0.6333  1.4270  2.1281
   82en-    HQM 2948   1.486   2.485  -0.608 -0.3133 -1.3328 -1.0658
   82en-    HQM 2949   1.526   2.343  -0.420 -0.5717 -0.8614 -0.2786
   82en-    HQM 2950   1.453   2.262  -0.188  0.9418  0.2437 -0.3634
   82en-    CQM 2951   1.283   2.240   0.003  0.5543 -0.2254  0.3588
   82en-    HQM 2952   1.383   2.200   0.021  1.5827  1.8561 -0.6149
   83en-    CQM 2953   0.855   2.943   1.480 -0.9779 -0.7125 -0.0625
   83en-    CQM 2954   0.747   2.899   1.556 -0.2592  0.1022 -0.3648
   83en-    CQM 2955   0.764   2.904   1.697 -0.2468 -0.0849 -0.0852
   83en-    CQM 2956   0.668   2.850   1.781  0.3956  0.3143 -0.2891
   83en-    CQM 2957   0.680   2.850   1.919  0.2073 -0.3274  0.1883
   83en-    CQM 2958   0.806   2.880   1.974 -0.4267 -0.4926  0.0921
   83en-    CQM 2959   0.906   2.935   1.896  0.3671  0.2471  0.1583
   83en-    CQM 2960   0.886   2.942   1.755  0.3556 -0.8285  0.2500
   83en-    CQM 2961   0.995   2.975   1.672  0.7270 -0.5025  0.3149
   83en-    CQM 2962   0.975   2.988   1.535 -0.3714  0.3777 -0.5196
   83en-    CQM 2963   0.837   2.957   1.339  0.1632 -0.5709  0.2541
   83en-    HQM 2964   0.653   2.877   1.506 -0.0759 -0.3956 -0.4951
   83en-    HQM 2965   0.577   2.810   1.736  0.9501 -0.9641 -0.2638
   83en-    HQM 2966   0.600   2.815   1.983  0.7323 -2.0853 -0.1087
   83en-    HQM 2967   0.828   2.861   2.079  0.1460 -1.1675 -0.1401
   83en-    HQM 2968   0.998   2.956   1.950  0.1883  0.4124  0.4002
   83en-    HQM 2969   1.089   3.001   1.720  0.4429  2.5953 -0.6408
   83en-    HQM 2970   0.742   2.943   1.288 -0.0422 -2.8335  1.1889
   83en-    CQM 2971   0.936   3.007   1.260  0.0886 -1.6523 -0.9157
   83en-    CQM 2972   1.062   3.045   1.311  0.2822  0.1993  0.3712
   83en-    CQM 2973   1.165   3.098   1.229 -0.8291  0.6479  0.4405
   83en-    CQM 2974   1.144   3.108   1.091 -0.0966 -0.3687  0.2383
   83en-    CQM 2975   1.237   3.165   1.005 -0.1811  0.7104  0.2256
   83en-    CQM 2976   1.226   3.177   0.869  0.4380 -0.0967 -0.8153
   83en-    CQM 2977   1.104   3.148   0.808  0.5290 -0.1926 -0.0172
   83en-    CQM 2978   1.000   3.099   0.896 -0.5406 -0.6057 -0.4500
   83en-    CQM 2979   1.019   3.073   1.036  0.4709  0.1594 -0.0667
   83en-    CQM 2980   0.917   3.029   1.121  0.3642  0.8398 -0.5725
   83en-    HQM 2981   0.824   2.992   1.079  0.5813  0.4139 -0.6832
   83en-    HQM 2982   0.899   3.100   0.857 -0.6742  0.4197 -0.0867
   83en-    HQM 2983   1.090   3.175   0.704  1.9091 -2.1826 -0.7529
   83en-    HQM 2984   1.309   3.216   0.812  1.4696 -0.5925  0.3180
   83en-    HQM 2985   1.324   3.199   1.060  0.0953 -0.5268  0.5515
   83en-    HQM 2986   1.255   3.133   1.279 -2.4514  0.2571  3.7933
   83en-    CQM 2987   1.079   3.038   1.453 -0.2585  1.1430  0.4346
   83en-    HQM 2988   1.170   3.078   1.495  1.9668 -2.1378 -1.0732
   84en-    CQM 2989   1.103   2.615   1.503 -0.1386  0.2119 -0.1936
   84en-    CQM 2990   1.008   2.623   1.610  0.4944  0.0350  0.4281
   84en-    CQM 2991   1.028   2.561   1.736  0.1882  0.2539  0.1921
   84en-    CQM 2992   0.925   2.567   1.836  0.3104 -0.0524 -0.2312
   84en-    CQM 2993   0.951   2.499   1.956  0.1334 -0.5337  0.1791
   84en-    CQM 2994   1.069   2.421   1.969  0.0149 -0.0706 -1.2547
   84en-    CQM 2995   1.174   2.431   1.876 -0.1287  0.0095 -0.4299
   84en-    CQM 2996   1.151   2.494   1.756  0.7704  0.2613  0.2721
   84en-    CQM 2997   1.248   2.487   1.651 -0.1522 -0.5270  0.0617
   84en-    CQM 2998   1.223   2.548   1.524 -0.8057 -0.5284  0.2071
   84en-    CQM 2999   1.078   2.666   1.377 -0.2208  0.1595  0.4758
   84en-    HQM 3000   0.913   2.670   1.585  0.4246  0.1206  0.8573
   84en-    HQM 3001   0.833   2.624   1.825  0.4665 -0.1317 -2.2263
   84en-    HQM 3002   0.882   2.503   2.039 -2.6964 -1.5453 -2.0161
   84en-    HQM 3003   1.090   2.362   2.058 -2.5779  0.6105 -0.1529
   84en-    HQM 3004   1.263   2.370   1.884  2.1143  3.4747  2.5462
   84en-    HQM 3005   1.338   2.430   1.674  0.5352  1.1217  1.5708
   84en-    HQM 3006   0.986   2.712   1.343 -0.7362 -1.8273 -0.8936
   84en-    CQM 3007   1.179   2.672   1.279 -0.4063 -0.6478  0.0012
   84en-    CQM 3008   1.304   2.617   1.302  0.1965  0.5890  0.5256
   84en-    CQM 3009   1.407   2.641   1.209 -0.0495 -0.1244 -0.4897
   84en-    CQM 3010   1.387   2.702   1.088  0.6564  0.7138  0.1817
   84en-    CQM 3011   1.490   2.718   0.996 -0.0730 -0.2115  0.2395
   84en-    CQM 3012   1.466   2.775   0.872  0.1500  0.2180  0.0474
   84en-    CQM 3013   1.338   2.814   0.843  0.0872  0.2060  0.7660
   84en-    CQM 3014   1.230   2.803   0.934  0.0157  0.0800 -0.1460
   84en-    CQM 3015   1.258   2.747   1.058  0.2149 -0.2087 -0.2621
   84en-    CQM 3016   1.155   2.739   1.154  0.6641 -0.7907  0.2048
   84en-    HQM 3017   1.059   2.782   1.127 -1.0077 -3.0505  2.2644
   84en-    HQM 3018   1.127   2.831   0.913  0.4547  1.3399 -0.6425
   84en-    HQM 3019   1.319   2.851   0.743  1.0914  1.3305  0.9898
   84en-    HQM 3020   1.542   2.795   0.796  1.0251  1.3338  1.1883
   84en-    HQM 3021   1.591   2.686   1.018  0.1753 -0.4489 -1.2271
   84en-    HQM 3022   1.508   2.612   1.237 -0.2908 -0.1952  0.3479
   84en-    CQM 3023   1.326   2.553   1.428  0.4134  0.5652  0.2609
   84en-    HQM 3024   1.407   2.485   1.450 -0.2198  0.1287  1.2844
   85en-    CQM 3025   0.869   3.280   2.885  1.4062 -0.6288 -0.1974
   85en-    CQM 3026   0.772   3.234   2.972 -1.0380 -0.3448  0.2367
   85en-    CQM 3027   0.793   3.219   3.110  0.3291 -0.1364  0.1091
   85en-    CQM 3028   0.698   3.153   3.188 -0.1751 -0.1192  0.7915
   85en-    CQM 3029   0.712   3.130   3.323  0.1952 -0.0264  0.0248
   85en-    CQM 3030   0.832   3.170   3.382  0.0414 -0.1250 -0.2528
   85en-    CQM 3031   0.932   3.238   3.311 -0.4071  0.5463  0.5539
   85en-    CQM 3032   0.914   3.266   3.170 -0.1692  0.3259 -0.1356
   85en-    CQM 3033   1.009   3.324   3.086 -0.6748 -0.6115  0.0340
   85en-    CQM 3034   0.987   3.332   2.944 -0.6512  0.1351 -0.6695
   85en-    CQM 3035   0.848   3.285   2.748 -0.1966 -0.2587  0.5653
   85en-    HQM 3036   0.676   3.204   2.930 -0.8555 -0.4472 -0.1101
   85en-    HQM 3037   0.613   3.117   3.131 -0.4590 -1.0902  1.7983
   85en-    HQM 3038   0.630   3.077   3.372 -0.8428  1.6983  0.1980
   85en-    HQM 3039   0.845   3.142   3.487 -0.1125  0.6004 -0.0392
   85en-    HQM 3040   1.026   3.267   3.357  1.4544 -0.0022 -2.7187
   85en-    HQM 3041   1.107   3.349   3.126 -1.5476  1.0646  1.1708
   85en-    HQM 3042   0.756   3.251   2.701 -1.3585  2.8724  0.4047
   85en-    CQM 3043   0.950   3.340   2.673  0.0120 -0.4436 -0.1266
   85en-    CQM 3044   1.069   3.385   2.726 -0.3254  0.0803  0.3975
   85en-    CQM 3045   1.171   3.439   2.649  0.2396 -0.1358  0.4565
   85en-    CQM 3046   1.158   3.441   2.510  0.0419 -0.2546  0.1979
   85en-    CQM 3047   1.258   3.497   2.427  0.1939 -0.5911  0.4570
   85en-    CQM 3048   1.247   3.477   2.285  0.4018  0.8175  0.2313
   85en-    CQM 3049   1.128   3.422   2.228  0.1060  0.0964  0.3824
   85en-    CQM 3050   1.031   3.369   2.311  0.4408  0.2226 -0.2707
   85en-    CQM 3051   1.045   3.379   2.452  0.1559 -0.6102  0.2005
   85en-    CQM 3052   0.932   3.344   2.535 -0.9967 -0.7319  0.4824
   85en-    HQM 3053   0.841   3.299   2.495 -1.1257 -0.3117  0.3023
   85en-    HQM 3054   0.943   3.326   2.264  1.2093  0.5773 -2.0607
   85en-    HQM 3055   1.121   3.408   2.120  0.7275 -1.5270  0.5445
   85en-    HQM 3056   1.319   3.524   2.218  2.0730  0.2496  1.5744
   85en-    HQM 3057   1.352   3.537   2.464 -0.7755  0.3731  1.9454
   85en-    HQM 3058   1.262   3.483   2.688  0.6690  2.0638 -2.7871
   85en-    CQM 3059   1.091   3.386   2.867  1.0472  0.5358  0.6493
   85en-    HQM 3060   1.182   3.423   2.913  1.9848 -2.9307  1.7666
   86en-    CQM 3061   1.155   2.963   2.938  0.3390 -0.5050 -0.2028
   86en-    CQM 3062   1.047   2.958   3.027 -0.5638  0.4702 -0.5648
   86en-    CQM 3063   1.053   2.896   3.150  0.1675  0.1951 -0.4333
   86en-    CQM 3064   0.945   2.896   3.242 -0.4050 -0.0043 -0.3429
   86en-    CQM 3065   0.960   2.832   3.365  0.5285  0.9837  0.5762
   86en-    CQM 3066   1.081   2.766   3.389  0.3177  0.4940 -0.5748
   86en-    CQM 3067   1.191   2.772   3.304 -0.3891  0.4503  0.0242
   86en-    CQM 3068   1.180   2.840   3.186 -0.6778  0.2987  0.1965
   86en-    CQM 3069   1.287   2.840   3.094 -0.3071 -0.6319  0.5071
   86en-    CQM 3070   1.275   2.902   2.967  0.4735 -0.0200 -0.0047
   86en-    CQM 3071   1.138   3.036   2.821 -0.1746  0.6250  0.2745
   86en-    HQM 3072   0.950   3.004   3.013  0.3686  2.1968 -1.4987
   86en-    HQM 3073   0.855   2.952   3.216 -0.7535  0.4396  1.7315
   86en-    HQM 3074   0.883   2.835   3.442 -0.4808  2.2701 -0.4696
   86en-    HQM 3075   1.084   2.702   3.477  0.3493  2.4461  0.8813
   86en-    HQM 3076   1.284   2.722   3.327  0.4424  1.8352 -0.2993
   86en-    HQM 3077   1.379   2.790   3.124 -0.7889 -0.6525  1.9670
   86en-    HQM 3078   1.050   3.091   2.790  0.2271  2.3346  2.0779
   86en-    CQM 3079   1.244   3.024   2.728  0.1030 -0.3507 -0.1810
   86en-    CQM 3080   1.361   2.952   2.753 -0.1837  0.3242  0.0195
   86en-    CQM 3081   1.459   2.940   2.659 -1.1602  0.0333 -0.5832
   86en-    CQM 3082   1.436   2.990   2.533 -0.2926  0.0106  0.4026
   86en-    CQM 3083   1.532   2.963   2.430 -0.6843 -0.1226  0.4164
   86en-    CQM 3084   1.516   3.012   2.304  0.1027  0.7804 -0.4994
   86en-    CQM 3085   1.398   3.079   2.271  0.3127  0.0220  0.2404
   86en-    CQM 3086   1.299   3.107   2.369  0.4418  0.1569  0.8872
   86en-    CQM 3087   1.317   3.056   2.501 -0.4815 -0.5268 -0.7204
   86en-    CQM 3088   1.219   3.078   2.599  0.7594 -0.3316  0.1497
   86en-    HQM 3089   1.133   3.142   2.582  1.3878  0.2906 -0.7184
   86en-    HQM 3090   1.211   3.163   2.339  0.9740  0.4096 -0.2210
   86en-    HQM 3091   1.382   3.108   2.167  3.6512  1.8417  0.1419
   86en-    HQM 3092   1.594   2.997   2.230 -0.2997  0.6631 -0.9062
   86en-    HQM 3093   1.623   2.909   2.451  0.2187  2.3445  3.1140
   86en-    HQM 3094   1.554   2.894   2.684 -1.1776  0.0921 -0.4027
   86en-    CQM 3095   1.377   2.885   2.877 -0.2163 -0.1889  0.0262
   86en-    HQM 3096   1.468   2.829   2.898  0.0208 -0.0335 -0.5873
   87en-    CQM 3097   0.911   3.614   4.287  0.1063 -1.1167  0.2546
   87en-    CQM 3098   0.816   3.554   4.366  0.3286  0.2167  0.1352
   87en-    CQM 3099   0.837   3.543   4.498 -0.1205 -0.0743 -0.5875
   87en-    CQM 3100   0.732   3.492   4.582 -0.2381 -0.4725  0.3974
   87en-    CQM 3101   0.755   3.478   4.719  0.3082  0.0834 -0.0215
   87en-    CQM 3102   0.887   3.503   4.774 -0.2837 -0.0656 -0.5194
   87en-    CQM 3103   0.987   3.563   4.698 -0.0529 -0.0182 -0.1843
   87en-    CQM 3104   0.959   3.582   4.561  0.0988  0.3602 -0.2819
   87en-    CQM 3105   1.061   3.633   4.482  0.2555  0.2859 -0.1234
   87en-    CQM 3106   1.037   3.651   4.349  1.5620  0.1656 -0.0250
   87en-    CQM 3107   0.891   3.616   4.148  0.5905  0.2781  0.7145
   87en-    HQM 3108   0.721   3.528   4.319  0.2059  0.8763  0.0145
   87en-    HQM 3109   0.635   3.467   4.540  0.3983 -0.2480 -1.2546
   87en-    HQM 3110   0.680   3.443   4.790  0.5059 -1.0679 -0.3742
   87en-    HQM 3111   0.896   3.484   4.880  1.3697 -0.4085 -0.7057
   87en-    HQM 3112   1.081   3.592   4.744  0.7804  1.8186 -2.9050
   87en-    HQM 3113   1.153   3.665   4.530 -0.5962  1.6489  0.6419
   87en-    HQM 3114   0.800   3.575   4.106  1.2394  0.8323 -1.2773
   87en-    CQM 3115   0.994   3.669   4.067  0.2057 -0.2104 -0.2680
   87en-    CQM 3116   1.113   3.721   4.129  0.3483  0.2930 -0.6938
   87en-    CQM 3117   1.212   3.788   4.056  0.2427  0.2476  0.1283
   87en-    CQM 3118   1.201   3.793   3.919  0.5461  0.6746  0.0869
   87en-    CQM 3119   1.303   3.851   3.841 -0.8047 -0.0487 -0.2986
   87en-    CQM 3120   1.293   3.852   3.702  0.4767  0.4636 -0.6483
   87en-    CQM 3121   1.179   3.808   3.639 -0.2368  0.1837  0.2045
   87en-    CQM 3122   1.071   3.756   3.713 -0.0641  0.3016 -0.0944
   87en-    CQM 3123   1.085   3.748   3.853 -0.0178  0.4992 -0.1322
   87en-    CQM 3124   0.985   3.678   3.928 -0.1197  0.1449  0.8314
   87en-    HQM 3125   0.897   3.644   3.874 -0.1586 -0.5145  1.2957
   87en-    HQM 3126   0.984   3.703   3.676  0.3475 -0.1121 -0.4721
   87en-    HQM 3127   1.176   3.811   3.530 -4.2690 -1.8280  0.1835
   87en-    HQM 3128   1.373   3.897   3.643  2.7901 -2.4252  0.1580
   87en-    HQM 3129   1.398   3.878   3.885  0.3340 -3.8196 -0.2887
   87en-    HQM 3130   1.303   3.828   4.098 -1.6442  2.4834  2.2636
   87en-    CQM 3131   1.135   3.707   4.266  0.1978 -0.6194 -0.4662
   87en-    HQM 3132   1.223   3.746   4.317 -0.7595 -1.0688  1.6059
   88en-    CQM 3133   1.199   3.302   4.309 -0.1449  0.0859  0.2363
   88en-    CQM 3134   1.086   3.300   4.396 -0.6015  0.1529  0.0927
   88en-    CQM 3135   1.102   3.238   4.523  0.3687 -0.3784  0.3925
   88en-    CQM 3136   1.001   3.250   4.619  0.4334 -0.0953 -0.3815
   88en-    CQM 3137   1.020   3.194   4.747 -0.2061 -0.1804  0.2594
   88en-    CQM 3138   1.144   3.129   4.779  0.9924  0.2000 -0.0028
   88en-    CQM 3139   1.245   3.119   4.685 -0.7239 -0.5741 -0.4278
   88en-    CQM 3140   1.225   3.177   4.557 -0.3322 -0.6024 -0.2686
   88en-    CQM 3141   1.333   3.179   4.467  0.4929 -0.5849  0.2868
   88en-    CQM 3142   1.321   3.240   4.339 -0.7249 -0.2867  0.1755
   88en-    CQM 3143   1.179   3.357   4.183 -0.5580  0.8204  0.0548
   88en-    HQM 3144   0.991   3.344   4.370  0.2556  0.7543 -2.1651
   88en-    HQM 3145   0.909   3.304   4.595 -1.4959 -3.2793 -0.4723
   88en-    HQM 3146   0.942   3.199   4.824 -1.6943  2.4714 -1.3502
   88en-    HQM 3147   1.154   3.088   4.879  0.4467  1.5962  0.6334
   88en-    HQM 3148   1.342   3.075   4.709  0.3764  0.3824 -3.0162
   88en-    HQM 3149   1.421   3.119   4.485  0.8612 -0.3991 -0.8463
   88en-    HQM 3150   1.078   3.395   4.169 -0.4358  2.2746  2.6999
   88en-    CQM 3151   1.284   3.360   4.087  0.8662  0.0107  0.5131
   88en-    CQM 3152   1.405   3.297   4.126  0.1662  0.4238  0.2496
   88en-    CQM 3153   1.510   3.298   4.035 -0.1429  0.5616 -0.1381
   88en-    CQM 3154   1.497   3.358   3.909  0.1282  0.3679 -0.3010
   88en-    CQM 3155   1.607   3.355   3.817  0.4439  0.8187 -0.2020
   88en-    CQM 3156   1.587   3.408   3.684 -1.4953 -0.5290 -0.3928
   88en-    CQM 3157   1.467   3.478   3.659 -0.1502 -0.3235  0.1999
   88en-    CQM 3158   1.361   3.488   3.751 -0.0903  0.3078 -0.1489
   88en-    CQM 3159   1.374   3.429   3.877 -0.5537 -0.5991  0.7323
   88en-    CQM 3160   1.273   3.432   3.968 -0.1237 -0.1901  0.0245
   88en-    HQM 3161   1.179   3.480   3.942 -0.8205 -1.5822 -0.0453
   88en-    HQM 3162   1.269   3.541   3.730  0.0280  0.6935  0.3067
   88en-    HQM 3163   1.448   3.527   3.564 -0.0139 -1.6570 -0.5333
   88en-    HQM 3164   1.665   3.409   3.609  1.8150  0.1356  2.9604
   88en-    HQM 3165   1.704   3.312   3.843 -0.6466 -1.1411  0.7351
   88en-    HQM 3166   1.598   3.241   4.063 -0.1359 -0.3431 -1.9179
   88en-    CQM 3167   1.419   3.236   4.250 -0.8744  0.3193 -1.0529
   88en-    HQM 3168   1.516   3.193   4.275 -1.0527  0.0215 -0.8766
   89en-    CQM 3169   0.610   0.126   5.699  0.0212 -0.2753 -0.4016
   89en-    CQM 3170   0.514   0.065   5.786 -0.0515 -0.2896 -0.6979
   89en-    CQM 3171   0.524   0.073   5.928  0.4711  0.4304  0.3373
   89en-    CQM 3172   0.431   0.007   6.005 -0.0691  0.1291 -0.6582
   89en-    CQM 3173   0.449  -0.008   6.147 -0.7058  0.3542  0.2035
   89en-    CQM 3174   0.564   0.055   6.211 -0.3633 -0.0456  0.5281
   89en-    CQM 3175   0.664   0.115   6.130  0.7338 -0.0360  0.0815
   89en-    CQM 3176   0.644   0.129   5.988  0.1286  0.5028 -0.0850
   89en-    CQM 3177   0.737   0.193   5.901  0.4982  0.5310 -0.1541
   89en-    CQM 3178   0.721   0.192   5.761  0.4237  0.3635  0.3197
   89en-    CQM 3179   0.588   0.130   5.560  0.1376 -0.2779 -0.0297
   89en-    HQM 3180   0.427   0.012   5.747 -1.0700 -0.3164  1.5239
   89en-    HQM 3181   0.345  -0.043   5.962 -1.1007 -0.2990  1.8485
   89en-    HQM 3182   0.368  -0.060   6.196 -0.8813 -0.0680 -0.5271
   89en-    HQM 3183   0.578   0.044   6.319  1.4397 -0.1016  0.2959
   89en-    HQM 3184   0.752   0.160   6.176  0.8566  0.0636 -0.2451
   89en-    HQM 3185   0.829   0.231   5.944  0.0227  2.9083 -1.1938
   89en-    HQM 3186   0.497   0.093   5.513 -0.9531  2.0755  0.1555
   89en-    CQM 3187   0.688   0.191   5.475  0.4604 -0.2669 -0.2315
   89en-    CQM 3188   0.804   0.241   5.532 -0.2677  0.3872 -0.8254
   89en-    CQM 3189   0.913   0.291   5.455 -0.4778  0.7036 -0.1360
   89en-    CQM 3190   0.899   0.296   5.314 -0.0931  1.1779 -0.1332
   89en-    CQM 3191   0.996   0.358   5.236  0.1339  0.4629 -0.4836
   89en-    CQM 3192   0.972   0.382   5.097  0.8795  0.5906 -0.0711
   89en-    CQM 3193   0.857   0.330   5.040  0.0318  0.0531  0.2159
   89en-    CQM 3194   0.763   0.267   5.116  0.4945 -0.3235 -0.0831
   89en-    CQM 3195   0.784   0.249   5.252  0.1992 -0.3732 -0.2919
   89en-    CQM 3196   0.675   0.193   5.334  0.5163 -0.5097 -0.1517
   89en-    HQM 3197   0.582   0.153   5.292 -0.8002  1.9156  0.3957
   89en-    HQM 3198   0.668   0.236   5.073  0.3198 -0.4270  0.3775
   89en-    HQM 3199   0.829   0.352   4.938  0.1654 -0.0823  0.1490
   89en-    HQM 3200   1.036   0.445   5.037  1.7079 -1.4236 -1.3720
   89en-    HQM 3201   1.085   0.398   5.283 -1.0013  1.6417  0.7188
   89en-    HQM 3202   0.999   0.336   5.504 -0.3180 -1.1909  1.4112
   89en-    CQM 3203   0.819   0.242   5.674  0.9003 -0.5419  0.5815
   89en-    HQM 3204   0.904   0.295   5.714  1.1551  2.6696 -3.8135
   90en-    CQM 3205   1.273   3.652   5.710  0.2752  0.3239  0.1696
   90en-    CQM 3206   1.184   3.661   5.820 -0.1524  0.4824  0.0104
   90en-    CQM 3207   1.215   3.593   5.938  0.6221  0.0457 -0.0454
   90en-    CQM 3208   1.122   3.601   6.045 -0.0294  0.2527 -0.0171
   90en-    CQM 3209   1.143   3.522   6.157  0.0637  0.2166 -0.5878
   90en-    CQM 3210   1.247   3.429   6.165 -0.0613  0.0246  0.0711
   90en-    CQM 3211   1.347   3.435   6.064 -1.0715 -0.0340 -0.0318
   90en-    CQM 3212   1.327   3.512   5.950  0.0268 -0.4799 -0.2022
   90en-    CQM 3213   1.422   3.519   5.849  0.2715  0.1306 -0.0491
   90en-    CQM 3214   1.394   3.586   5.732  0.0506  0.5397  0.5769
   90en-    CQM 3215   1.240   3.723   5.587 -0.2971 -0.2136 -0.0841
   90en-    HQM 3216   1.103   3.733   5.818 -0.5529  0.1173  2.0142
   90en-    HQM 3217   1.037   3.667   6.030  0.7751  0.8413 -2.1395
   90en-    HQM 3218   1.063   3.528   6.230  0.6744  0.7163  0.0496
   90en-    HQM 3219   1.244   3.360   6.248 -0.8758  0.2149  0.2056
   90en-    HQM 3220   1.430   3.364   6.063 -0.9171  0.1557 -0.7830
   90en-    HQM 3221   1.517   3.468   5.859 -0.2055 -0.2648  2.8359
   90en-    HQM 3222   1.150   3.779   5.561  0.6043  0.5699 -1.6206
   90en-    CQM 3223   1.338   3.722   5.488  0.8709  0.1794 -0.3481
   90en-    CQM 3224   1.463   3.655   5.508  0.1866 -0.1953 -0.3212
   90en-    CQM 3225   1.559   3.655   5.407 -0.0232  0.1386 -0.6052
   90en-    CQM 3226   1.530   3.714   5.284 -0.0239 -1.2355  0.2533
   90en-    CQM 3227   1.630   3.716   5.183 -0.2996 -0.1914  0.1601
   90en-    CQM 3228   1.606   3.772   5.057  0.3751  0.1610  0.0848
   90en-    CQM 3229   1.480   3.830   5.028  0.3061  0.3697  0.8030
   90en-    CQM 3230   1.376   3.829   5.127  0.0704 -0.3423  0.1891
   90en-    CQM 3231   1.405   3.784   5.264  0.0763 -0.5444  0.1508
   90en-    CQM 3232   1.307   3.783   5.368 -0.0461  0.9587 -0.0588
   90en-    HQM 3233   1.210   3.822   5.340 -0.1059  1.3804  0.7159
   90en-    HQM 3234   1.275   3.865   5.112 -0.7659 -2.8935 -0.5254
   90en-    HQM 3235   1.450   3.884   4.939 -0.1746  0.0409  0.7612
   90en-    HQM 3236   1.681   3.760   4.980 -0.2153 -1.3204 -0.2858
   90en-    HQM 3237   1.732   3.684   5.202  1.2913  3.1178 -2.3124
   90en-    HQM 3238   1.659   3.616   5.419  1.6353  4.7343  1.6210
   90en-    CQM 3239   1.490   3.593   5.631 -0.0503 -0.7935 -0.1481
   90en-    HQM 3240   1.585   3.543   5.649 -0.5705 -1.4158  0.9791
   91en-    CQM 3241   0.868   3.439   0.092 -0.5192 -0.0045 -0.3705
   91en-    CQM 3242   0.772   3.374   0.171 -0.5375  0.1050  0.4671
   91en-    CQM 3243   0.787   3.362   0.311 -0.3640 -0.0646 -0.3009
   91en-    CQM 3244   0.697   3.285   0.383 -0.1871  0.8207 -0.1987
   91en-    CQM 3245   0.717   3.260   0.519  0.1068  0.2369  0.5596
   91en-    CQM 3246   0.826   3.316   0.583 -0.0503 -1.1392  0.6237
   91en-    CQM 3247   0.915   3.400   0.512  0.2436  0.2047  0.3809
   91en-    CQM 3248   0.905   3.412   0.371  0.9645 -0.5393 -0.3185
   91en-    CQM 3249   1.009   3.464   0.290 -0.3256 -0.7104  0.0218
   91en-    CQM 3250   0.994   3.473   0.147  0.5101 -0.8293  0.4169
   91en-    CQM 3251   0.853   3.442  -0.048  0.3003 -0.3785  0.5081
   91en-    HQM 3252   0.690   3.331   0.113  0.0483  2.6996 -2.4046
   91en-    HQM 3253   0.616   3.229   0.337  1.1731  0.2348 -1.9716
   91en-    HQM 3254   0.644   3.199   0.571 -1.4883  0.4517 -1.3664
   91en-    HQM 3255   0.838   3.279   0.685  2.1968 -2.0301  0.0605
   91en-    HQM 3256   1.008   3.433   0.557 -0.5262  0.7475  1.5956
   91en-    HQM 3257   1.101   3.492   0.339 -0.9222  0.4103  0.5301
   91en-    HQM 3258   0.765   3.402  -0.097 -1.1490 -0.1575  2.8436
   91en-    CQM 3259   0.953   3.493  -0.126  0.1173  0.4373 -0.2637
   91en-    CQM 3260   1.076   3.535  -0.073  1.3096 -0.4161  0.6312
   91en-    CQM 3261   1.186   3.569  -0.154 -0.3501 -0.0235  0.0219
   91en-    CQM 3262   1.159   3.587  -0.291 -0.2838 -0.3870  1.0664
   91en-    CQM 3263   1.259   3.628  -0.377 -0.3359 -0.4139 -0.4184
   91en-    CQM 3264   1.235   3.667  -0.509 -0.3759 -0.3949 -0.7305
   91en-    CQM 3265   1.105   3.640  -0.563  0.0509 -0.2611 -0.1510
   91en-    CQM 3266   1.005   3.579  -0.479  0.4194 -0.1349  0.1130
   91en-    CQM 3267   1.031   3.557  -0.343 -0.3401  0.2858  0.0485
   91en-    CQM 3268   0.928   3.502  -0.261  0.2735 -0.0052 -0.1936
   91en-    HQM 3269   0.835   3.470  -0.308  0.1768  0.0884 -0.0658
   91en-    HQM 3270   0.906   3.551  -0.514 -1.2242  1.0547  3.5298
   91en-    HQM 3271   1.079   3.667  -0.665 -1.1917  0.3401  0.3133
   91en-    HQM 3272   1.318   3.712  -0.562  0.6002 -0.4809  0.7048
   91en-    HQM 3273   1.358   3.647  -0.337 -0.9142  1.9897 -0.0538
   91en-    HQM 3274   1.276   3.607  -0.106  1.5044 -2.6170 -1.2791
   91en-    CQM 3275   1.090   3.528   0.068  0.1464  0.8646  0.0915
   91en-    HQM 3276   1.185   3.556   0.113  0.2549  2.9111 -1.3124
   92en-    CQM 3277   1.159   3.109   0.091  0.2390  0.6632  0.0373
   92en-    CQM 3278   1.066   3.110   0.199  0.3138  0.1141  0.2399
   92en-    CQM 3279   1.078   3.024   0.311  0.5338 -0.3750  0.2347
   92en-    CQM 3280   0.980   3.011   0.410  0.7004 -0.1012  0.0952
   92en-    CQM 3281   0.992   2.922   0.519  0.6846 -0.1217  0.0169
   92en-    CQM 3282   1.109   2.844   0.526 -0.4454  0.1720 -0.0701
   92en-    CQM 3283   1.209   2.865   0.429 -0.2085  0.6890 -0.2935
   92en-    CQM 3284   1.190   2.941   0.315  0.0087  0.1302 -0.0545
   92en-    CQM 3285   1.287   2.945   0.218 -0.0141 -0.7070  0.3505
   92en-    CQM 3286   1.272   3.024   0.103  0.2393  0.3424  0.2747
   92en-    CQM 3287   1.138   3.193  -0.021 -0.0563 -0.0661 -0.3271
   92en-    HQM 3288   0.986   3.184   0.195  1.1855  1.0477 -0.3320
   92en-    HQM 3289   0.889   3.070   0.399  0.9821  0.4152  0.4851
   92en-    HQM 3290   0.922   2.916   0.603  0.2667 -0.4068 -0.3491
   92en-    HQM 3291   1.127   2.775   0.608  0.7769  0.5269 -0.0245
   92en-    HQM 3292   1.297   2.800   0.433  0.0345  1.0651  0.6592
   92en-    HQM 3293   1.381   2.893   0.235  0.6513 -0.3862 -2.0969
   92en-    HQM 3294   1.046   3.249  -0.034  0.8079  1.6476  0.7097
   92en-    CQM 3295   1.227   3.171  -0.130 -0.2857 -0.9962  0.0948
   92en-    CQM 3296   1.342   3.089  -0.123 -0.1463  0.4973  0.1150
   92en-    CQM 3297   1.427   3.078  -0.232  0.0732  0.5380 -0.4456
   92en-    CQM 3298   1.406   3.153  -0.348 -0.0133  0.2453  0.3679
   92en-    CQM 3299   1.496   3.141  -0.450 -0.2380  0.6319 -0.6946
   92en-    CQM 3300   1.468   3.210  -0.571 -0.2858  0.3854  0.2533
   92en-    CQM 3301   1.353   3.291  -0.588 -0.5008  0.6048  0.1307
   92en-    CQM 3302   1.267   3.300  -0.483  0.5389  0.0499  0.0567
   92en-    CQM 3303   1.292   3.230  -0.359 -0.2576 -0.8898 -0.8982
   92en-    CQM 3304   1.207   3.241  -0.251 -0.4077 -0.0459  0.0126
   92en-    HQM 3305   1.112   3.293  -0.263 -1.3214 -1.7252 -0.2124
   92en-    HQM 3306   1.184   3.371  -0.481  0.3814 -0.1549  0.7743
   92en-    HQM 3307   1.333   3.346  -0.679 -0.3158 -0.6767 -0.7006
   92en-    HQM 3308   1.536   3.190  -0.653  0.8770  3.7327  0.3030
   92en-    HQM 3309   1.580   3.073  -0.450  1.2624  2.4367  1.4862
   92en-    HQM 3310   1.509   3.008  -0.219 -0.6615  0.0998  2.2031
   92en-    CQM 3311   1.363   3.015  -0.003  0.4478 -0.0014  0.0034
   92en-    HQM 3312   1.448   2.950   0.011  1.5067  1.0073 -1.6621
   93en-    CQM 3313   0.928   3.730   1.494 -0.0183  0.5734 -0.8606
   93en-    CQM 3314   0.827   3.679   1.578 -0.0302  1.0344  0.0946
   93en-    CQM 3315   0.848   3.669   1.721 -1.0773 -0.8148  0.3234
   93en-    CQM 3316   0.755   3.609   1.804  0.5494  0.1630  0.1499
   93en-    CQM 3317   0.777   3.583   1.937 -0.4379 -0.4005 -0.2791
   93en-    CQM 3318   0.899   3.622   2.003  0.3790  0.1228  0.0882
   93en-    CQM 3319   0.993   3.690   1.919 -0.8714  0.2848 -0.7902
   93en-    CQM 3320   0.971   3.709   1.780 -0.1388 -0.4255 -0.1448
   93en-    CQM 3321   1.066   3.763   1.688 -0.2641 -0.0187 -0.7565
   93en-    CQM 3322   1.051   3.774   1.554 -0.3245 -0.0726 -0.5880
   93en-    CQM 3323   0.906   3.749   1.353 -0.3244 -0.1196  0.1854
   93en-    HQM 3324   0.734   3.646   1.532  0.4360  0.7510 -0.6479
   93en-    HQM 3325   0.661   3.577   1.761  0.4494  1.5684 -0.7240
   93en-    HQM 3326   0.693   3.545   1.995 -0.2743 -0.3066  0.0209
   93en-    HQM 3327   0.919   3.610   2.109 -0.8441 -0.5872  0.2569
   93en-    HQM 3328   1.073   3.744   1.968  0.1395  2.0199 -4.1401
   93en-    HQM 3329   1.157   3.810   1.726  1.1396 -0.7516 -3.0945
   93en-    HQM 3330   0.809   3.726   1.310 -0.6964  0.2714  0.8035
   93en-    CQM 3331   1.002   3.814   1.278  0.7308 -0.4094  0.5112
   93en-    CQM 3332   1.126   3.848   1.335  0.7656 -0.0922 -0.0972
   93en-    CQM 3333   1.226   3.900   1.253 -0.5707  0.3194 -0.2377
   93en-    CQM 3334   1.204   3.917   1.119  0.5209 -0.2425  0.1470
   93en-    CQM 3335   1.307   3.976   1.042  0.2905 -0.0583  0.2995
   93en-    CQM 3336   1.289   4.003   0.903  0.0117 -0.0739 -0.1148
   93en-    CQM 3337   1.166   3.968   0.845 -0.3625  0.4194 -0.5664
   93en-    CQM 3338   1.063   3.915   0.923 -1.0233 -0.4435  0.3550
   93en-    CQM 3339   1.077   3.893   1.062  0.2646  0.0123  0.2748
   93en-    CQM 3340   0.976   3.829   1.139 -0.0597 -0.4269 -0.1682
   93en-    HQM 3341   0.885   3.793   1.092 -1.2547  0.4163  1.4654
   93en-    HQM 3342   0.962   3.894   0.888 -0.8052 -0.0205 -0.5333
   93en-    HQM 3343   1.144   3.993   0.742 -1.9740 -0.2233 -0.3844
   93en-    HQM 3344   1.371   4.038   0.841 -1.0521  1.1560 -0.8490
   93en-    HQM 3345   1.404   3.992   1.087  0.4259 -0.5885  0.2003
   93en-    HQM 3346   1.325   3.926   1.290 -0.8026  1.4936 -0.4500
   93en-    CQM 3347   1.144   3.841   1.472  1.2444  0.2247 -0.6629
   93en-    HQM 3348   1.242   3.870   1.511  1.8309 -0.8059 -1.3597
   94en-    CQM 3349   1.206   3.419   1.486 -0.3911 -0.7881 -0.7505
   94en-    CQM 3350   1.101   3.416   1.584  0.7019 -0.5556 -0.8480
   94en-    CQM 3351   1.117   3.346   1.702  0.4067 -0.2789  0.8952
   94en-    CQM 3352   1.015   3.344   1.798 -0.0986  0.0144  0.1389
   94en-    CQM 3353   1.026   3.268   1.914  0.6628  0.0317  0.9718
   94en-    CQM 3354   1.138   3.191   1.941  0.2642  0.6086 -0.1844
   94en-    CQM 3355   1.244   3.193   1.845  0.1094 -0.0699  0.4158
   94en-    CQM 3356   1.231   3.268   1.730  0.0489  0.2853  0.2593
   94en-    CQM 3357   1.336   3.275   1.635  0.2924  0.0897  0.8722
   94en-    CQM 3358   1.329   3.355   1.518 -0.1707 -0.1224  0.4055
   94en-    CQM 3359   1.186   3.497   1.369 -0.4087  0.4058 -0.1602
   94en-    HQM 3360   1.010   3.470   1.564  0.5717  0.1565  1.4618
   94en-    HQM 3361   0.920   3.392   1.776 -0.2306  0.1017  0.9062
   94en-    HQM 3362   0.942   3.274   1.984  0.3443 -2.3871  0.8352
   94en-    HQM 3363   1.149   3.134   2.033  1.2234  1.1414  0.0320
   94en-    HQM 3364   1.331   3.133   1.868 -1.3464 -2.1308  0.6238
   94en-    HQM 3365   1.429   3.225   1.660  0.4603 -1.0549 -1.8659
   94en-    HQM 3366   1.096   3.555   1.351 -0.7069  0.2663  0.8565
   94en-    CQM 3367   1.291   3.494   1.274  0.3843 -0.4764 -0.1139
   94en-    CQM 3368   1.417   3.432   1.300  0.4986  0.5356 -0.5959
   94en-    CQM 3369   1.517   3.429   1.202 -0.0802 -0.4036  0.2304
   94en-    CQM 3370   1.495   3.488   1.074 -0.3837  0.5446 -0.2979
   94en-    CQM 3371   1.594   3.484   0.973  0.6354  0.0370  0.1053
   94en-    CQM 3372   1.570   3.546   0.848  0.2192  0.0956  0.0859
   94en-    CQM 3373   1.445   3.615   0.829  0.6848  0.3519  0.6063
   94en-    CQM 3374   1.343   3.609   0.924  0.3469 -0.1649  0.3371
   94en-    CQM 3375   1.368   3.548   1.048 -0.4315  0.1204  0.0921
   94en-    CQM 3376   1.271   3.551   1.149  0.0326  0.5272 -0.1894
   94en-    HQM 3377   1.171   3.590   1.133  0.0236  0.6976  0.2796
   94en-    HQM 3378   1.243   3.646   0.904  0.0289  0.5220  2.9292
   94en-    HQM 3379   1.423   3.664   0.734 -0.6222 -0.5804  0.4130
   94en-    HQM 3380   1.640   3.527   0.766 -1.5567 -0.2472 -1.3846
   94en-    HQM 3381   1.683   3.424   0.989  1.9508  1.8019 -0.4366
   94en-    HQM 3382   1.608   3.374   1.224  1.0464  0.8603 -1.1276
   94en-    CQM 3383   1.436   3.363   1.422  0.2596 -0.6992 -0.3356
   94en-    HQM 3384   1.536   3.325   1.444  1.0406  1.8995  0.7148
   95en-    CQM 3385   0.604   0.213   2.910 -0.3596 -0.2098 -0.2038
   95en-    CQM 3386   0.512   0.159   3.001  0.3161  0.3965  0.0883
   95en-    CQM 3387   0.542   0.147   3.135  0.4270  0.9132  0.3489
   95en-    CQM 3388   0.458   0.078   3.227  0.5727 -0.2562  0.3584
   95en-    CQM 3389   0.487   0.067   3.361  0.6258 -0.1727 -0.0624
   95en-    CQM 3390   0.606   0.120   3.412 -0.2549 -0.3226  0.8939
   95en-    CQM 3391   0.701   0.178   3.324 -0.6442 -0.5223  0.8059
   95en-    CQM 3392   0.668   0.194   3.186 -0.0685  0.4055  0.5307
   95en-    CQM 3393   0.760   0.251   3.097  1.1029 -0.3051 -0.0220
   95en-    CQM 3394   0.729   0.257   2.958 -0.1919  0.7085  0.5268
   95en-    CQM 3395   0.577   0.229   2.777 -0.3165  0.3797 -0.0908
   95en-    HQM 3396   0.424   0.110   2.961  1.3223 -2.0826  0.7731
   95en-    HQM 3397   0.365   0.040   3.185  0.3353  1.3801 -0.6732
   95en-    HQM 3398   0.409   0.023   3.423 -0.1800  2.9783  1.2191
   95en-    HQM 3399   0.620   0.125   3.520 -1.5954 -2.5129  1.2082
   95en-    HQM 3400   0.801   0.204   3.355 -0.3891  1.7278 -1.6514
   95en-    HQM 3401   0.857   0.288   3.129  0.9330 -1.8078  2.3766
   95en-    HQM 3402   0.483   0.184   2.747  0.0697 -1.2041  1.0129
   95en-    CQM 3403   0.666   0.284   2.686  0.6758 -0.8255 -0.6682
   95en-    CQM 3404   0.793   0.332   2.738 -0.1875 -1.1741  0.0847
   95en-    CQM 3405   0.886   0.391   2.651 -0.1281  0.0946  0.1209
   95en-    CQM 3406   0.858   0.395   2.513 -0.2581  0.2899 -0.4199
   95en-    CQM 3407   0.959   0.441   2.422 -0.8377 -0.9458 -0.0838
   95en-    CQM 3408   0.927   0.459   2.289 -0.2158  0.6210 -0.2089
   95en-    CQM 3409   0.799   0.419   2.236 -0.1779 -0.2500  0.0279
   95en-    CQM 3410   0.700   0.375   2.327  0.2557 -0.0390  0.0662
   95en-    CQM 3411   0.732   0.358   2.468 -0.9961  0.6732 -0.8396
   95en-    CQM 3412   0.639   0.298   2.554  0.0834  0.4356 -0.2837
   95en-    HQM 3413   0.543   0.265   2.515 -0.5199  0.7563  0.8962
   95en-    HQM 3414   0.607   0.335   2.288  1.2436 -0.9821 -1.3786
   95en-    HQM 3415   0.773   0.438   2.133 -0.1511  3.1907  0.5980
   95en-    HQM 3416   0.990   0.521   2.226  0.5207  0.5916  0.4878
   95en-    HQM 3417   1.057   0.467   2.462 -0.9518  0.2567 -0.5614
   95en-    HQM 3418   0.983   0.423   2.689 -0.0610 -1.1962  1.0927
   95en-    CQM 3419   0.821   0.317   2.871 -0.0177  0.1931 -0.0094
   95en-    HQM 3420   0.918   0.356   2.901  0.1117  0.1466 -0.3702
   96en-    CQM 3421   1.236   3.709   2.909  0.1679 -0.2188  0.1842
   96en-    CQM 3422   1.131   3.712   3.001  0.3496 -0.5017  0.1226
   96en-    CQM 3423   1.148   3.651   3.127 -0.9483 -0.4036  0.6130
   96en-    CQM 3424   1.045   3.655   3.220 -0.0620  0.0364  0.1074
   96en-    CQM 3425   1.055   3.587   3.340  0.0029  0.2761 -0.4497
   96en-    CQM 3426   1.179   3.517   3.367  1.3711  0.5630 -0.3813
   96en-    CQM 3427   1.285   3.519   3.281 -0.3115 -0.3572  0.0171
   96en-    CQM 3428   1.268   3.579   3.153 -0.3268 -0.4066 -0.6780
   96en-    CQM 3429   1.373   3.585   3.059  0.1119  0.2252  0.1260
   96en-    CQM 3430   1.360   3.648   2.931 -0.4538  0.1010 -0.5353
   96en-    CQM 3431   1.220   3.782   2.788  0.4036  0.5624  0.3241
   96en-    HQM 3432   1.043   3.770   2.977  1.3316  1.5881  1.4721
   96en-    HQM 3433   0.954   3.712   3.202 -0.0839  0.2671  0.9279
   96en-    HQM 3434   0.985   3.589   3.424  2.8466 -1.3322  2.0706
   96en-    HQM 3435   1.193   3.473   3.466 -0.8232  1.0049  0.1494
   96en-    HQM 3436   1.383   3.478   3.303  0.4651  1.4185 -0.0367
   96en-    HQM 3437   1.471   3.540   3.077 -0.6485 -1.1358  0.8969
   96en-    HQM 3438   1.124   3.827   2.764  0.3894 -0.2894 -1.2646
   96en-    CQM 3439   1.323   3.786   2.694  0.0517 -0.1188 -0.1160
   96en-    CQM 3440   1.439   3.716   2.717 -0.7112 -0.0944 -0.8045
   96en-    CQM 3441   1.537   3.724   2.615  0.6494  0.5597  0.0145
   96en-    CQM 3442   1.512   3.788   2.488  0.1618 -0.5934  0.3763
   96en-    CQM 3443   1.610   3.791   2.383 -0.8406  0.1451  0.1692
   96en-    CQM 3444   1.572   3.852   2.262 -0.0314 -0.0179  0.3205
   96en-    CQM 3445   1.450   3.915   2.240 -0.5780 -0.2711  0.1908
   96en-    CQM 3446   1.359   3.923   2.350 -0.2504  0.0428  0.7263
   96en-    CQM 3447   1.392   3.855   2.470 -0.5313 -0.3893  0.7806
   96en-    CQM 3448   1.299   3.862   2.580  0.6746  0.5139 -0.7194
   96en-    HQM 3449   1.203   3.911   2.566 -0.3830 -1.0920  0.8188
   96en-    HQM 3450   1.259   3.964   2.344 -0.2905 -0.3507 -1.5990
   96en-    HQM 3451   1.434   3.951   2.139  0.8536 -1.7008 -0.5732
   96en-    HQM 3452   1.637   3.846   2.175 -0.2826 -0.4234  0.1617
   96en-    HQM 3453   1.703   3.737   2.394 -0.7005  0.5071  0.7591
   96en-    HQM 3454   1.638   3.684   2.628 -0.4808 -2.6874 -0.6652
   96en-    CQM 3455   1.463   3.648   2.835 -0.2432  0.5653  0.1377
   96en-    HQM 3456   1.563   3.606   2.848 -0.8971 -0.3633  2.2868
   97en-    CQM 3457   0.621   0.553   4.329  0.5220 -0.2663  0.6407
   97en-    CQM 3458   0.517   0.503   4.413 -0.0360  0.3722  0.1375
   97en-    CQM 3459   0.545   0.489   4.554  0.7390  0.4592  0.6842
   97en-    CQM 3460   0.449   0.427   4.632 -0.1705  0.2174  0.4886
   97en-    CQM 3461   0.481   0.392   4.765  0.1835 -0.4722  0.5517
   97en-    CQM 3462   0.603   0.430   4.817  0.4089  0.0680  0.3590
   97en-    CQM 3463   0.699   0.500   4.741 -0.5805  0.1144 -0.1331
   97en-    CQM 3464   0.669   0.520   4.607  0.2579 -0.1832  0.2476
   97en-    CQM 3465   0.773   0.569   4.525 -0.0142 -0.9158  0.2199
   97en-    CQM 3466   0.743   0.594   4.386 -0.3355  0.2117 -0.4040
   97en-    CQM 3467   0.596   0.574   4.190 -0.2918  0.1055  0.2048
   97en-    HQM 3468   0.419   0.485   4.370 -0.5138 -0.1317  1.3918
   97en-    HQM 3469   0.364   0.384   4.579  1.1302 -0.3877 -1.1357
   97en-    HQM 3470   0.403   0.340   4.820 -0.3383 -0.2729  0.0001
   97en-    HQM 3471   0.625   0.394   4.917 -1.3027 -0.0700  0.7016
   97en-    HQM 3472   0.792   0.524   4.791 -0.7603  2.1244 -0.6997
   97en-    HQM 3473   0.868   0.602   4.565 -1.8083  0.9997  3.0747
   97en-    HQM 3474   0.498   0.545   4.153 -0.7314  1.8148 -0.0155
   97en-    CQM 3475   0.701   0.623   4.109 -0.4156  0.9554  0.1948
   97en-    CQM 3476   0.830   0.652   4.165  0.2981 -0.8080  0.1751
   97en-    CQM 3477   0.928   0.705   4.077 -0.4437  0.6943 -0.3333
   97en-    CQM 3478   0.910   0.718   3.940 -0.7712  0.4715 -0.0202
   97en-    CQM 3479   1.014   0.772   3.859 -0.6527  0.2447  0.5119
   97en-    CQM 3480   0.987   0.788   3.722 -0.6570  0.3370 -0.0589
   97en-    CQM 3481   0.862   0.744   3.663 -0.1152 -0.9633 -0.0971
   97en-    CQM 3482   0.760   0.696   3.749  0.3445 -0.3669  0.0453
   97en-    CQM 3483   0.785   0.687   3.888  0.3830 -0.5501  0.5788
   97en-    CQM 3484   0.684   0.634   3.970  0.3347  0.0592  0.5235
   97en-    HQM 3485   0.590   0.597   3.931 -0.3121  0.7625  1.4018
   97en-    HQM 3486   0.666   0.664   3.706  1.2086  0.4557 -2.5276
   97en-    HQM 3487   0.852   0.770   3.558  0.4319  4.3753  1.0037
   97en-    HQM 3488   1.057   0.844   3.660  0.6605  1.0420  2.0507
   97en-    HQM 3489   1.107   0.815   3.895  0.5429 -0.1185 -2.0766
   97en-    HQM 3490   1.027   0.718   4.118 -0.6707  0.0094  0.4530
   97en-    CQM 3491   0.846   0.652   4.303  0.1264 -0.2293  0.0249
   97en-    HQM 3492   0.936   0.690   4.350 -1.2118  0.6412  1.9291
   98en-    CQM 3493   0.872   0.228   4.313 -0.4663  0.2041  0.4333
   98en-    CQM 3494   0.770   0.228   4.409  0.2604  0.5726  0.2148
   98en-    CQM 3495   0.798   0.169   4.531 -0.3849  0.1253  0.9325
   98en-    CQM 3496   0.708   0.180   4.636  0.3433 -0.2189  1.2507
   98en-    CQM 3497   0.726   0.104   4.752 -0.3809 -0.3137  1.0403
   98en-    CQM 3498   0.842   0.022   4.761  0.0568 -0.3452 -0.6728
   98en-    CQM 3499   0.933   0.009   4.661  0.5002 -0.2608  0.5014
   98en-    CQM 3500   0.917   0.092   4.549  0.4100  0.0269 -0.2991
   98en-    CQM 3501   1.016   0.085   4.449  0.1463  0.4499  0.1704
   98en-    CQM 3502   0.992   0.156   4.330 -0.7942  0.7625  0.2283
   98en-    CQM 3503   0.851   0.286   4.186 -0.0261 -0.0349 -0.2982
   98en-    HQM 3504   0.676   0.279   4.392  1.0521  2.2866  0.9177
   98en-    HQM 3505   0.608   0.218   4.614  0.8361  0.4463  0.1428
   98en-    HQM 3506   0.646   0.098   4.826 -0.6021  1.6335  0.9782
   98en-    HQM 3507   0.858  -0.042   4.847  2.6697  1.7373  0.4541
   98en-    HQM 3508   1.017  -0.059   4.664  0.0658 -0.8239 -0.0124
   98en-    HQM 3509   1.096   0.013   4.460  2.4313  2.7343 -0.7488
   98en-    HQM 3510   0.751   0.318   4.161 -0.5123 -1.6320 -0.4685
   98en-    CQM 3511   0.954   0.287   4.089  0.3905 -0.6862 -0.6282
   98en-    CQM 3512   1.076   0.224   4.113  0.7019  0.1705  0.0187
   98en-    CQM 3513   1.173   0.220   4.015 -0.8943 -0.3698 -0.2493
   98en-    CQM 3514   1.154   0.296   3.897  0.2539  0.7413 -0.4048
   98en-    CQM 3515   1.256   0.296   3.799 -0.1914 -0.5137 -0.0046
   98en-    CQM 3516   1.239   0.365   3.675  0.2690 -0.5710 -0.1468
   98en-    CQM 3517   1.124   0.439   3.655  0.0105  1.0733 -0.3591
   98en-    CQM 3518   1.019   0.429   3.749  0.7124  0.4574  0.4628
   98en-    CQM 3519   1.034   0.360   3.869 -0.0457 -0.6465 -0.0951
   98en-    CQM 3520   0.934   0.355   3.964 -0.5729  0.5111 -0.0054
   98en-    HQM 3521   0.841   0.411   3.956  0.0154  1.3131 -1.4172
   98en-    HQM 3522   0.934   0.496   3.736  0.8309  0.7310  1.0626
   98en-    HQM 3523   1.112   0.502   3.567  1.2313  1.6573 -0.1207
   98en-    HQM 3524   1.317   0.354   3.601 -0.2787  1.2598 -1.0393
   98en-    HQM 3525   1.348   0.243   3.820 -0.5013 -0.7955  0.6772
   98en-    HQM 3526   1.267   0.172   4.040 -2.0414 -2.1975  0.6302
   98en-    CQM 3527   1.095   0.158   4.234 -0.4504  0.0288 -0.2678
   98en-    HQM 3528   1.186   0.101   4.252  1.5135  2.6925 -1.4316
   99en-    CQM 3529   0.682   0.890   5.735 -0.3739 -0.0457  0.1340
   99en-    CQM 3530   0.582   0.846   5.822 -0.0472 -0.4559 -0.1408
   99en-    CQM 3531   0.608   0.827   5.959  0.6316  0.1884  0.7588
   99en-    CQM 3532   0.512   0.780   6.045  0.2162  0.0096  0.2897
   99en-    CQM 3533   0.535   0.777   6.183  0.0081 -0.3534 -0.2533
   99en-    CQM 3534   0.665   0.813   6.233  0.4207 -0.1575 -0.7478
   99en-    CQM 3535   0.760   0.863   6.141  0.5425 -0.2634 -0.7249
   99en-    CQM 3536   0.733   0.866   6.009  0.1480  0.1113  0.9030
   99en-    CQM 3537   0.830   0.920   5.920 -0.1689  0.6844  0.4916
   99en-    CQM 3538   0.809   0.929   5.787 -0.2495 -0.3116 -0.2323
   99en-    CQM 3539   0.657   0.904   5.595 -0.0321 -0.2196 -0.2570
   99en-    HQM 3540   0.487   0.815   5.779  0.0188  1.1390 -1.4909
   99en-    HQM 3541   0.414   0.745   6.014  0.2007  0.5592 -0.2914
   99en-    HQM 3542   0.459   0.756   6.257  0.3249  1.3229  0.5910
   99en-    HQM 3543   0.688   0.810   6.340  1.1862 -0.1801 -0.9111
   99en-    HQM 3544   0.859   0.887   6.178  0.6860  1.3923 -2.0894
   99en-    HQM 3545   0.929   0.948   5.953  0.6952 -0.4252 -1.1088
   99en-    HQM 3546   0.559   0.886   5.551  0.2638  1.6823 -1.7913
   99en-    CQM 3547   0.754   0.949   5.506 -0.5937  0.1143 -0.5421
   99en-    CQM 3548   0.877   0.992   5.557  0.1831 -0.3781 -0.1155
   99en-    CQM 3549   0.972   1.040   5.467 -0.5606  0.5277  0.5482
   99en-    CQM 3550   0.946   1.058   5.329 -0.2351  0.2900 -0.4215
   99en-    CQM 3551   1.046   1.119   5.247 -0.5148  0.2280  0.1370
   99en-    CQM 3552   1.015   1.138   5.112 -0.7954 -0.1822  0.3564
   99en-    CQM 3553   0.895   1.091   5.061  0.6772 -0.0181 -0.3199
   99en-    CQM 3554   0.794   1.045   5.146  1.1054 -0.1641 -0.2311
   99en-    CQM 3555   0.819   1.015   5.281 -0.0125  0.6642  0.3420
   99en-    CQM 3556   0.723   0.961   5.370 -0.1700  0.8092 -0.2053
   99en-    HQM 3557   0.626   0.926   5.338 -1.4858 -0.0792  4.4230
   99en-    HQM 3558   0.691   1.040   5.112  0.4975  0.5657  1.4560
   99en-    HQM 3559   0.870   1.110   4.957 -0.9643  0.0431  0.0748
   99en-    HQM 3560   1.070   1.204   5.045  0.3939 -0.2314  1.2753
   99en-    HQM 3561   1.139   1.159   5.286 -1.8088  2.5752  0.9285
   99en-    HQM 3562   1.064   1.073   5.515  0.2510  2.5830 -2.3561
   99en-    CQM 3563   0.907   0.982   5.696  0.4341 -0.7239 -0.2121
   99en-    HQM 3564   0.995   1.030   5.738 -1.0409 -0.5855  2.9023
  100en-    CQM 3565   0.945   0.580   5.739  0.0099  0.5434 -0.0474
  100en-    CQM 3566   0.844   0.575   5.842  0.4867 -0.4129 -0.3685
  100en-    CQM 3567   0.876   0.516   5.969 -0.1017  0.4642 -0.5751
  100en-    CQM 3568   0.782   0.509   6.071 -0.3762  0.3612  0.2555
  100en-    CQM 3569   0.808   0.433   6.187 -1.0010 -0.2296 -0.0936
  100en-    CQM 3570   0.928   0.365   6.207  0.4671 -0.0028  0.1887
  100en-    CQM 3571   1.026   0.377   6.104 -0.4825  0.0378 -0.9935
  100en-    CQM 3572   1.000   0.454   5.989  0.6309 -0.2633  0.5307
  100en-    CQM 3573   1.094   0.452   5.882 -0.5215  0.4833 -0.6056
  100en-    CQM 3574   1.071   0.516   5.760 -0.7308  0.1855  0.6018
  100en-    CQM 3575   0.920   0.650   5.620  0.1615  0.0634  0.2197
  100en-    HQM 3576   0.754   0.635   5.836  0.5905 -0.3031 -0.8637
  100en-    HQM 3577   0.697   0.576   6.061 -0.2008  0.5589  0.0675
  100en-    HQM 3578   0.734   0.427   6.266 -0.7036  2.4276  0.4286
  100en-    HQM 3579   0.948   0.303   6.294 -1.0981 -0.3804  0.2788
  100en-    HQM 3580   1.114   0.314   6.098 -1.2896 -1.0440 -1.6351
  100en-    HQM 3581   1.184   0.393   5.894 -1.2586 -0.2777  1.5148
  100en-    HQM 3582   0.826   0.703   5.609 -1.6268 -2.6303  1.8618
  100en-    CQM 3583   1.014   0.641   5.517 -0.4775 -0.0464  0.0986
  100en-    CQM 3584   1.134   0.573   5.535  0.1841  0.4247  0.1217
  100en-    CQM 3585   1.231   0.574   5.435  0.2402  0.5131 -1.1561
  100en-    CQM 3586   1.198   0.626   5.312 -0.0189 -0.3896 -0.0832
  100en-    CQM 3587   1.294   0.613   5.206  0.1161 -0.1797  0.0312
  100en-    CQM 3588   1.271   0.666   5.079 -0.1055 -0.1675 -0.0592
  100en-    CQM 3589   1.163   0.748   5.058 -1.1140  0.7891  0.1927
  100en-    CQM 3590   1.068   0.761   5.160 -0.0946  0.0278  0.3554
  100en-    CQM 3591   1.081   0.695   5.285 -0.5839 -0.0228  0.7554
  100en-    CQM 3592   0.988   0.700   5.387 -0.2084 -0.7845 -0.7710
  100en-    HQM 3593   0.895   0.753   5.369 -0.3065 -0.4940  0.5324
  100en-    HQM 3594   0.998   0.843   5.145  1.5874  1.3999 -0.2141
  100en-    HQM 3595   1.155   0.795   4.960 -3.2893 -0.7825 -0.4286
  100en-    HQM 3596   1.349   0.654   5.004 -0.3915 -2.5067 -0.0138
  100en-    HQM 3597   1.388   0.562   5.223  1.1406  1.0405 -1.8557
  100en-    HQM 3598   1.327   0.526   5.451 -0.7413 -0.6686  1.5394
  100en-    CQM 3599   1.169   0.506   5.659  1.2458  0.4827  0.4440
  100en-    HQM 3600   1.268   0.464   5.673  1.4664  0.6704 -0.5099
  101en-    CQM 3601   1.203   0.332   0.074 -0.0399  0.0087 -0.6985
  101en-    CQM 3602   1.098   0.280   0.155 -0.1439 -0.1190  0.4605
  101en-    CQM 3603   1.123   0.269   0.291 -0.9246  0.7683 -0.1824
  101en-    CQM 3604   1.023   0.212   0.376  0.1644 -0.0793  0.1727
  101en-    CQM 3605   1.042   0.202   0.519 -0.1835  0.5712 -0.2404
  101en-    CQM 3606   1.165   0.237   0.575 -0.1855  0.0983 -0.4458
  101en-    CQM 3607   1.260   0.296   0.494 -0.3703 -0.3714 -0.5291
  101en-    CQM 3608   1.240   0.313   0.357 -0.7766  0.0105 -0.0762
  101en-    CQM 3609   1.339   0.377   0.277  0.2534 -0.9453 -0.5372
  101en-    CQM 3610   1.320   0.385   0.136 -0.3913  0.1408 -0.3786
  101en-    CQM 3611   1.183   0.347  -0.063 -0.1240  0.5440  0.0421
  101en-    HQM 3612   1.006   0.248   0.108 -1.4883  2.5085  1.2158
  101en-    HQM 3613   0.927   0.183   0.335  0.4005  1.3089 -1.4061
  101en-    HQM 3614   0.962   0.162   0.580 -0.5008 -0.0077 -1.0162
  101en-    HQM 3615   1.177   0.222   0.682 -0.9797 -2.2114 -0.6633
  101en-    HQM 3616   1.352   0.330   0.541 -0.1842  0.4293 -1.4542
  101en-    HQM 3617   1.433   0.409   0.321 -0.5279 -1.9756  2.0057
  101en-    HQM 3618   1.095   0.298  -0.104 -0.1779 -0.2953  1.1242
  101en-    CQM 3619   1.275   0.407  -0.148 -0.9096  0.8037  0.3162
  101en-    CQM 3620   1.392   0.458  -0.089 -0.1303 -0.1092 -0.0096
  101en-    CQM 3621   1.493   0.522  -0.172  1.2064 -0.2691 -0.0476
  101en-    CQM 3622   1.472   0.525  -0.311 -0.4713 -1.1094  0.0321
  101en-    CQM 3623   1.577   0.584  -0.391  0.0980 -0.2390  0.0760
  101en-    CQM 3624   1.549   0.596  -0.529  0.7802 -1.0854  0.6310
  101en-    CQM 3625   1.429   0.552  -0.581  0.0914  0.1947  0.0362
  101en-    CQM 3626   1.328   0.486  -0.506  0.3068 -0.4341 -0.0544
  101en-    CQM 3627   1.349   0.477  -0.367 -0.5298  0.1455  0.4650
  101en-    CQM 3628   1.256   0.418  -0.284  0.2213 -0.4338 -0.4799
  101en-    HQM 3629   1.169   0.374  -0.331 -0.3932 -0.9160  1.0914
  101en-    HQM 3630   1.240   0.448  -0.555  2.6749 -2.5048 -2.8896
  101en-    HQM 3631   1.412   0.550  -0.688 -0.7183 -1.4647  0.1726
  101en-    HQM 3632   1.615   0.651  -0.595 -0.6587  0.3917  0.3652
  101en-    HQM 3633   1.668   0.620  -0.343 -0.6494  1.6472  0.1270
  101en-    HQM 3634   1.588   0.549  -0.126  0.3803  2.0682  0.3551
  101en-    CQM 3635   1.415   0.448   0.053 -0.3170 -1.1951 -0.5109
  101en-    HQM 3636   1.503   0.493   0.099 -0.1763 -0.7122 -1.2500
  102en-    CQM 3637   1.494   0.025   0.033 -0.4378  0.3067  0.2976
  102en-    CQM 3638   1.399   0.027   0.139  0.0675  0.7264 -0.1983
  102en-    CQM 3639   1.425  -0.037   0.262 -0.8475 -0.3094  0.7531
  102en-    CQM 3640   1.328  -0.037   0.360 -0.4961 -0.1879 -0.4473
  102en-    CQM 3641   1.353  -0.102   0.489  0.0749 -0.3632  0.3593
  102en-    CQM 3642   1.476  -0.161   0.508  0.1743  0.0328 -0.5955
  102en-    CQM 3643   1.576  -0.156   0.403  0.6908  0.1040  0.3893
  102en-    CQM 3644   1.550  -0.105   0.280  0.9548  0.4886  0.6253
  102en-    CQM 3645   1.644  -0.107   0.178  0.6070 -0.0901 -0.0147
  102en-    CQM 3646   1.618  -0.043   0.054  0.5221 -0.7724 -0.4344
  102en-    CQM 3647   1.470   0.097  -0.084  0.0286  0.2509  0.1351
  102en-    HQM 3648   1.304   0.079   0.136 -0.8361 -0.9438 -1.8949
  102en-    HQM 3649   1.236   0.016   0.339  0.8550  3.0541  1.4549
  102en-    HQM 3650   1.280  -0.098   0.569 -1.3935 -0.9858 -0.9136
  102en-    HQM 3651   1.506  -0.207   0.601  0.4517 -0.0476 -0.7209
  102en-    HQM 3652   1.676  -0.192   0.425  1.1913  0.4378 -1.2371
  102en-    HQM 3653   1.730  -0.171   0.195 -1.0438 -2.8975 -1.7484
  102en-    HQM 3654   1.376   0.149  -0.098  0.5890  0.9602 -1.0205
  102en-    CQM 3655   1.569   0.104  -0.182 -0.3422 -0.7388  0.2784
  102en-    CQM 3656   1.691   0.029  -0.162  0.3704 -0.3883  0.7041
  102en-    CQM 3657   1.783   0.023  -0.272  0.4473  0.0024  0.0023
  102en-    CQM 3658   1.762   0.099  -0.386 -0.5730  0.1010  0.1124
  102en-    CQM 3659   1.857   0.092  -0.486  0.0447  0.1097  0.1522
  102en-    CQM 3660   1.838   0.166  -0.600 -0.1229  0.7016  0.5966
  102en-    CQM 3661   1.729   0.246  -0.612  0.8618 -0.0089  0.2254
  102en-    CQM 3662   1.629   0.252  -0.516 -0.4855  0.5973 -0.3941
  102en-    CQM 3663   1.645   0.177  -0.400 -0.5104 -0.2856 -0.2982
  102en-    CQM 3664   1.544   0.174  -0.303 -0.1658  0.1867  0.5507
  102en-    HQM 3665   1.459   0.241  -0.309 -0.9184 -1.0075 -2.7356
  102en-    HQM 3666   1.534   0.302  -0.532 -1.0216 -0.6830 -1.2464
  102en-    HQM 3667   1.711   0.305  -0.702 -1.9894  1.0247  1.4000
  102en-    HQM 3668   1.914   0.163  -0.677 -0.7135 -1.5625  0.0705
  102en-    HQM 3669   1.952   0.044  -0.466 -0.4702 -1.0182 -0.0646
  102en-    HQM 3670   1.872  -0.036  -0.253 -0.2495 -1.3087 -0.7349
  102en-    CQM 3671   1.716  -0.039  -0.045 -0.3926 -0.2843  0.1398
  102en-    HQM 3672   1.809  -0.091  -0.023 -2.1168 -2.8357  1.7115
  103en-    CQM 3673   1.266   0.661   1.492  0.2706  0.5203  0.0807
  103en-    CQM 3674   1.157   0.632   1.577  0.2412 -0.3973 -0.9199
  103en-    CQM 3675   1.171   0.626   1.718 -0.2451  0.0057 -0.0417
  103en-    CQM 3676   1.066   0.577   1.798 -0.0999 -0.3110 -0.3366
  103en-    CQM 3677   1.076   0.554   1.935 -0.0514  0.7868 -0.6271
  103en-    CQM 3678   1.201   0.570   1.997 -0.0359  0.5675  0.2724
  103en-    CQM 3679   1.307   0.631   1.922 -0.6134 -0.0885 -0.3819
  103en-    CQM 3680   1.292   0.658   1.781  0.1353 -0.2703  0.3440
  103en-    CQM 3681   1.396   0.709   1.697  0.2605 -0.4397 -0.0557
  103en-    CQM 3682   1.386   0.709   1.554  0.4231  0.3502  0.2076
  103en-    CQM 3683   1.248   0.656   1.354  0.8829 -0.1673 -0.3930
  103en-    HQM 3684   1.067   0.588   1.533 -0.2929 -2.6383  2.2789
  103en-    HQM 3685   0.971   0.556   1.751  0.2655  2.0241 -2.2313
  103en-    HQM 3686   0.987   0.512   1.981  0.0178 -1.2471 -2.2717
  103en-    HQM 3687   1.214   0.537   2.099 -2.0232  0.1288  0.3909
  103en-    HQM 3688   1.404   0.645   1.968 -0.7354  0.4591 -0.2882
  103en-    HQM 3689   1.486   0.745   1.746  0.1144  1.6357 -1.2491
  103en-    HQM 3690   1.155   0.615   1.318  1.6010 -1.2253 -1.0865
  103en-    CQM 3691   1.349   0.711   1.276  0.8916  0.4547 -0.4144
  103en-    CQM 3692   1.467   0.758   1.330 -0.7555 -0.4349  0.0705
  103en-    CQM 3693   1.562   0.812   1.245  0.6400 -0.1009  0.6303
  103en-    CQM 3694   1.539   0.822   1.106 -0.5120 -0.0965  0.0967
  103en-    CQM 3695   1.644   0.866   1.022 -0.5450  0.3727  0.1461
  103en-    CQM 3696   1.624   0.875   0.887 -0.2159 -0.3021  1.0096
  103en-    CQM 3697   1.501   0.842   0.822  0.3313 -0.2110 -0.0950
  103en-    CQM 3698   1.398   0.789   0.908  0.4565  0.3414 -0.1857
  103en-    CQM 3699   1.419   0.774   1.050  0.7739 -0.4061 -0.3256
  103en-    CQM 3700   1.328   0.717   1.137 -0.0552  1.2069  0.5816
  103en-    HQM 3701   1.235   0.679   1.095 -0.6912  1.5296  1.6769
  103en-    HQM 3702   1.316   0.736   0.862 -0.1306  1.3081 -0.2479
  103en-    HQM 3703   1.481   0.859   0.717  2.0888 -0.1246 -0.4265
  103en-    HQM 3704   1.708   0.920   0.834  0.3268 -0.3192  1.8419
  103en-    HQM 3705   1.736   0.908   1.063 -0.5990  0.3210  0.3231
  103en-    HQM 3706   1.660   0.835   1.287 -0.7631  1.6793  3.0898
  103en-    CQM 3707   1.487   0.760   1.469 -0.0444  0.1945  0.1431
  103en-    HQM 3708   1.577   0.798   1.515  0.2094  0.2149 -0.3664
  104en-    CQM 3709   1.506   0.314   1.521  0.0983  1.3225  0.2890
  104en-    CQM 3710   1.417   0.320   1.628 -0.2406  0.4847  0.3732
  104en-    CQM 3711   1.439   0.257   1.751 -0.1487  0.4363 -0.5675
  104en-    CQM 3712   1.345   0.262   1.850 -0.1439 -0.1140  1.0292
  104en-    CQM 3713   1.360   0.196   1.974  0.0395  0.3496  0.5312
  104en-    CQM 3714   1.478   0.128   1.997  0.9419  0.6864 -0.0856
  104en-    CQM 3715   1.575   0.116   1.897 -0.4360 -0.3995  0.1723
  104en-    CQM 3716   1.557   0.182   1.773 -0.1504  0.2225  0.3294
  104en-    CQM 3717   1.644   0.173   1.662 -0.0520 -0.1503  0.4179
  104en-    CQM 3718   1.624   0.233   1.538 -0.2452 -0.1983  0.0997
  104en-    CQM 3719   1.493   0.381   1.397 -0.3424  0.0304  0.1780
  104en-    HQM 3720   1.327   0.379   1.613  0.3611  0.8001 -2.3617
  104en-    HQM 3721   1.253   0.317   1.830 -0.2012 -0.9355 -1.0667
  104en-    HQM 3722   1.282   0.208   2.049 -3.0646  3.6855 -2.9939
  104en-    HQM 3723   1.474   0.071   2.089  0.3396  0.4628 -0.2424
  104en-    HQM 3724   1.662   0.053   1.917  0.7717  1.5067  1.0535
  104en-    HQM 3725   1.733   0.112   1.675 -0.7826 -1.0878  1.0825
  104en-    HQM 3726   1.410   0.450   1.384  1.3360  2.1716  0.4820
  104en-    CQM 3727   1.598   0.385   1.305 -0.0733  0.1679 -0.1765
  104en-    CQM 3728   1.715   0.312   1.327  0.5239  0.2308 -0.1250
  104en-    CQM 3729   1.819   0.310   1.234 -0.4258 -0.1559 -0.1238
  104en-    CQM 3730   1.803   0.374   1.108  0.0556  0.2501  0.4044
  104en-    CQM 3731   1.905   0.373   1.018  0.4190 -0.5230 -0.1133
  104en-    CQM 3732   1.902   0.434   0.894  0.1406  0.1691 -0.3999
  104en-    CQM 3733   1.784   0.504   0.858 -0.1621 -0.7267 -0.2572
  104en-    CQM 3734   1.675   0.504   0.954 -0.1246 -0.3441 -0.1184
  104en-    CQM 3735   1.687   0.446   1.083 -0.6164 -0.6418 -0.0525
  104en-    CQM 3736   1.586   0.456   1.182  0.0413  0.2984 -0.2219
  104en-    HQM 3737   1.495   0.511   1.161  0.4721  0.5112 -1.5659
  104en-    HQM 3738   1.583   0.560   0.939 -0.1690 -0.8338 -1.7704
  104en-    HQM 3739   1.776   0.566   0.768 -0.2109 -1.1039 -0.5121
  104en-    HQM 3740   1.984   0.412   0.826  0.0300 -0.0396 -0.4682
  104en-    HQM 3741   1.994   0.316   1.041 -0.5584 -1.5811  1.1185
  104en-    HQM 3742   1.910   0.261   1.267 -0.7237  0.2946  1.4267
  104en-    CQM 3743   1.723   0.229   1.438 -0.1794  0.4093 -0.3370
  104en-    HQM 3744   1.812   0.167   1.446 -0.5024 -0.1118 -0.7839
  105en-    CQM 3745   1.298   0.974   2.904 -0.0158  0.3017 -0.3389
  105en-    CQM 3746   1.204   0.922   2.994  0.1157 -0.0221 -0.6596
  105en-    CQM 3747   1.231   0.923   3.134 -0.2304  0.4536  0.0745
  105en-    CQM 3748   1.138   0.878   3.226  0.1090 -0.1987  0.1672
  105en-    CQM 3749   1.174   0.861   3.360  0.9971 -0.5245  0.2086
  105en-    CQM 3750   1.302   0.903   3.406  0.1725  0.0233 -0.6851
  105en-    CQM 3751   1.393   0.957   3.315 -0.4023 -0.3241  0.2468
  105en-    CQM 3752   1.358   0.961   3.178  0.2660 -0.2274 -0.2749
  105en-    CQM 3753   1.454   1.004   3.087  0.0590  0.0897 -0.1280
  105en-    CQM 3754   1.424   1.012   2.951  0.1686 -0.9633 -0.3736
  105en-    CQM 3755   1.274   0.984   2.763  1.2825  0.2407 -1.1310
  105en-    HQM 3756   1.101   0.901   2.965 -0.2164 -2.7551  2.2649
  105en-    HQM 3757   1.044   0.841   3.187  0.3972  0.4560 -1.1744
  105en-    HQM 3758   1.105   0.798   3.416 -0.5451  0.2511 -0.7899
  105en-    HQM 3759   1.330   0.900   3.511  0.3952  0.5018 -0.7304
  105en-    HQM 3760   1.490   1.000   3.338 -0.3460  0.1668 -0.8808
  105en-    HQM 3761   1.555   1.034   3.113  0.7107  0.9015 -3.4292
  105en-    HQM 3762   1.184   0.938   2.722  2.3703 -1.9695 -1.1085
  105en-    CQM 3763   1.358   1.050   2.681  0.4506  0.3655  0.7339
  105en-    CQM 3764   1.477   1.096   2.731 -0.0647  0.0887 -0.1956
  105en-    CQM 3765   1.574   1.144   2.651  0.2106 -0.3194  0.3874
  105en-    CQM 3766   1.554   1.157   2.514 -0.0649  0.0007 -0.7246
  105en-    CQM 3767   1.658   1.188   2.430 -0.1408  0.6468  0.5584
  105en-    CQM 3768   1.638   1.187   2.291  0.0014 -0.8145 -0.0778
  105en-    CQM 3769   1.517   1.161   2.235  0.1390  1.0309 -0.1871
  105en-    CQM 3770   1.409   1.121   2.314 -0.4150 -0.1949 -0.0251
  105en-    CQM 3771   1.430   1.117   2.456  0.1570 -1.0663 -0.4389
  105en-    CQM 3772   1.336   1.063   2.541 -0.9696 -0.2173  0.3320
  105en-    HQM 3773   1.247   1.025   2.491 -1.3033  2.4892 -1.1928
  105en-    HQM 3774   1.319   1.086   2.264  0.5349  0.6281 -2.4292
  105en-    HQM 3775   1.511   1.159   2.126  0.1926 -5.6508 -0.2191
  105en-    HQM 3776   1.724   1.202   2.226 -0.8083 -1.1629 -1.2434
  105en-    HQM 3777   1.753   1.207   2.480  0.1765 -1.9289  0.9909
  105en-    HQM 3778   1.672   1.165   2.694  1.0150 -0.5295 -1.2879
  105en-    CQM 3779   1.513   1.068   2.862  0.1033 -0.1135  0.3736
  105en-    HQM 3780   1.610   1.098   2.900 -0.7226 -1.7194  3.9406
  106en-    CQM 3781   1.553   0.640   2.932  0.5388  0.5013 -0.1383
  106en-    CQM 3782   1.455   0.653   3.036 -0.3450  1.4291  0.0163
  106en-    CQM 3783   1.467   0.585   3.155 -0.2735  0.2099  0.1887
  106en-    CQM 3784   1.369   0.603   3.255  0.1038  0.2361 -0.4691
  106en-    CQM 3785   1.372   0.530   3.377 -0.2617 -0.2590 -0.1783
  106en-    CQM 3786   1.496   0.462   3.408  0.1244  0.3519 -0.3516
  106en-    CQM 3787   1.602   0.452   3.312 -0.3161  0.4644 -0.1117
  106en-    CQM 3788   1.581   0.505   3.181 -0.3169 -0.5625 -0.0149
  106en-    CQM 3789   1.682   0.497   3.084 -0.4036  0.4627 -0.3645
  106en-    CQM 3790   1.669   0.567   2.960  0.1139 -0.2184  0.7053
  106en-    CQM 3791   1.535   0.707   2.809  0.3810  0.4478 -0.5157
  106en-    HQM 3792   1.370   0.719   3.020 -0.3262  1.7203  1.0717
  106en-    HQM 3793   1.285   0.666   3.230 -0.1060  0.2270  0.2013
  106en-    HQM 3794   1.294   0.552   3.449  1.9473  2.2290  1.5603
  106en-    HQM 3795   1.516   0.424   3.507 -0.6093  0.0646 -0.3146
  106en-    HQM 3796   1.694   0.399   3.336  0.2852  1.8697  0.6939
  106en-    HQM 3797   1.773   0.442   3.104 -1.6716 -0.7966  2.1472
  106en-    HQM 3798   1.442   0.762   2.798 -0.8262 -1.1490  1.4758
  106en-    CQM 3799   1.637   0.710   2.716  0.7061 -0.2674  0.1931
  106en-    CQM 3800   1.748   0.624   2.735 -0.2641  0.8574  0.3803
  106en-    CQM 3801   1.846   0.610   2.636 -0.6081 -1.2779 -0.7539
  106en-    CQM 3802   1.838   0.689   2.517  0.1886  0.3145 -0.3371
  106en-    CQM 3803   1.935   0.673   2.417 -0.1379  0.6895  0.2699
  106en-    CQM 3804   1.927   0.747   2.296  0.0350 -0.7771 -0.2622
  106en-    CQM 3805   1.814   0.829   2.275 -0.0293 -0.2656 -0.8855
  106en-    CQM 3806   1.713   0.842   2.378 -0.5671 -0.4976 -0.2925
  106en-    CQM 3807   1.728   0.776   2.499 -0.3406 -0.5151 -0.0249
  106en-    CQM 3808   1.630   0.791   2.595 -0.3969  1.2521 -0.2080
  106en-    HQM 3809   1.550   0.859   2.566 -1.8201 -0.9898 -1.6464
  106en-    HQM 3810   1.637   0.916   2.357 -0.5912 -0.8110 -1.3513
  106en-    HQM 3811   1.807   0.892   2.187  0.5222  3.5836  1.7512
  106en-    HQM 3812   2.006   0.733   2.222  0.3174 -0.9398  0.0667
  106en-    HQM 3813   2.025   0.615   2.435  0.9359  1.4240 -2.4906
  106en-    HQM 3814   1.923   0.534   2.647  0.7979  0.1521 -0.5230
  106en-    CQM 3815   1.765   0.557   2.859 -0.0537 -0.4163 -0.2182
  106en-    HQM 3816   1.845   0.488   2.880 -0.5624 -1.0724 -0.3905
  107en-    CQM 3817   1.333   1.286   4.329 -0.3074 -0.4995 -0.5079
  107en-    CQM 3818   1.226   1.238   4.406 -0.0089 -0.6058 -0.7068
  107en-    CQM 3819   1.248   1.238   4.544  0.0231  0.2916  0.8424
  107en-    CQM 3820   1.144   1.198   4.630  0.6761 -0.0454 -0.7520
  107en-    CQM 3821   1.164   1.193   4.770  0.2314 -0.2083  0.0062
  107en-    CQM 3822   1.291   1.234   4.827  0.3803  0.8085  0.2534
  107en-    CQM 3823   1.393   1.277   4.740 -0.6220 -0.3003  0.5319
  107en-    CQM 3824   1.366   1.283   4.600 -0.2703  0.1190 -0.5702
  107en-    CQM 3825   1.470   1.334   4.522 -0.1001 -0.2964  0.1671
  107en-    CQM 3826   1.456   1.334   4.382 -0.3170 -0.8503  0.2313
  107en-    CQM 3827   1.313   1.294   4.194  0.5982  0.1626  0.2530
  107en-    HQM 3828   1.126   1.222   4.366  0.0382 -0.0237 -1.0570
  107en-    HQM 3829   1.051   1.169   4.582  0.1044  1.1708 -0.3923
  107en-    HQM 3830   1.085   1.150   4.830 -0.9771  1.0244 -0.6649
  107en-    HQM 3831   1.306   1.228   4.935  0.7707  0.6117  0.1872
  107en-    HQM 3832   1.485   1.322   4.776 -1.2963  0.4224  1.3511
  107en-    HQM 3833   1.556   1.383   4.567 -0.5388 -0.6257  1.3955
  107en-    HQM 3834   1.226   1.247   4.149  0.5088  0.4113  0.1682
  107en-    CQM 3835   1.407   1.346   4.105 -0.0751  0.0900 -0.5764
  107en-    CQM 3836   1.528   1.399   4.156  0.2703  0.0929  0.3841
  107en-    CQM 3837   1.616   1.468   4.073  0.1150  0.0494  0.1809
  107en-    CQM 3838   1.591   1.474   3.936  0.3255  0.4800 -0.1183
  107en-    CQM 3839   1.686   1.526   3.853 -0.3557 -0.2990 -0.0374
  107en-    CQM 3840   1.668   1.529   3.716  0.3118  0.7349  0.6043
  107en-    CQM 3841   1.547   1.477   3.662  0.1671  0.3355 -0.5827
  107en-    CQM 3842   1.453   1.417   3.749  0.5339 -0.0836 -0.0056
  107en-    CQM 3843   1.475   1.408   3.886  0.4117  0.5417  0.1508
  107en-    CQM 3844   1.375   1.353   3.970  0.8241 -0.0878 -0.3745
  107en-    HQM 3845   1.285   1.311   3.926 -0.4074  2.5072 -0.4510
  107en-    HQM 3846   1.358   1.388   3.704  0.6872  1.6960 -1.5054
  107en-    HQM 3847   1.536   1.474   3.554 -1.5905 -1.5086 -0.3927
  107en-    HQM 3848   1.753   1.566   3.658  0.6382  0.4449  0.8965
  107en-    HQM 3849   1.774   1.567   3.902 -0.5410 -0.3424  0.3319
  107en-    HQM 3850   1.709   1.504   4.116 -0.5173  0.6724  1.0472
  107en-    CQM 3851   1.555   1.383   4.296 -0.5194  0.2166  0.7363
  107en-    HQM 3852   1.642   1.427   4.344  0.5635 -1.5048  0.3892
  108en-    CQM 3853   1.579   0.949   4.350  0.4025  0.3176  0.2638
  108en-    CQM 3854   1.490   0.957   4.457 -0.0299  0.2913  0.1989
  108en-    CQM 3855   1.500   0.877   4.570 -0.0211  0.0583 -0.4456
  108en-    CQM 3856   1.408   0.888   4.673  0.8864  0.3863 -0.2330
  108en-    CQM 3857   1.433   0.828   4.801 -0.2313  0.2358  0.0911
  108en-    CQM 3858   1.552   0.756   4.822 -0.2706  0.0934  0.2696
  108en-    CQM 3859   1.645   0.749   4.717 -0.0826  0.1060 -0.3042
  108en-    CQM 3860   1.621   0.802   4.589  0.2749  0.3709 -0.4353
  108en-    CQM 3861   1.727   0.813   4.493 -0.2629 -0.3491 -0.9969
  108en-    CQM 3862   1.701   0.875   4.367 -0.5857  0.4223  0.4432
  108en-    CQM 3863   1.553   1.025   4.232  0.1440  0.7584  0.2230
  108en-    HQM 3864   1.400   1.014   4.436  0.2086  0.0731 -1.4676
  108en-    HQM 3865   1.321   0.952   4.667  1.1935  0.7748 -0.5211
  108en-    HQM 3866   1.360   0.846   4.879  0.1899 -1.6248  0.9403
  108en-    HQM 3867   1.583   0.721   4.920  0.1495 -0.4839 -0.0744
  108en-    HQM 3868   1.739   0.698   4.732  0.7118  0.9525 -2.1943
  108en-    HQM 3869   1.825   0.769   4.510 -1.0165 -2.0633 -1.0006
  108en-    HQM 3870   1.459   1.079   4.222 -2.7337 -3.9544  0.2766
  108en-    CQM 3871   1.658   1.029   4.133  0.0213  0.2735  0.9654
  108en-    CQM 3872   1.784   0.961   4.160  0.2064 -0.5515  0.2763
  108en-    CQM 3873   1.881   0.964   4.064 -0.0879 -0.2492  1.1131
  108en-    CQM 3874   1.862   1.025   3.940 -0.2578 -0.3747 -0.0303
  108en-    CQM 3875   1.962   1.033   3.843  0.1330  0.1357  1.0664
  108en-    CQM 3876   1.944   1.097   3.717  0.2942  0.7728  0.4917
  108en-    CQM 3877   1.820   1.164   3.691  0.2285  0.9872 -0.3120
  108en-    CQM 3878   1.720   1.160   3.794 -0.7038 -0.4841  0.1721
  108en-    CQM 3879   1.746   1.097   3.913  0.3683 -0.4499 -0.2590
  108en-    CQM 3880   1.637   1.089   4.008 -1.2515  0.2666 -0.2897
  108en-    HQM 3881   1.545   1.140   3.985 -0.6317  1.9154  0.8152
  108en-    HQM 3882   1.626   1.211   3.775 -0.3537  0.0991  0.0158
  108en-    HQM 3883   1.803   1.210   3.593  2.7678  1.2401 -0.6506
  108en-    HQM 3884   2.020   1.095   3.640  0.9561 -0.9368  1.1545
  108en-    HQM 3885   2.056   0.982   3.860  0.4265  0.4010  0.2666
  108en-    HQM 3886   1.976   0.914   4.081  1.1504  1.9264  0.8365
  108en-    CQM 3887   1.810   0.887   4.279  0.1483 -0.4276 -0.1057
  108en-    HQM 3888   1.912   0.857   4.300  1.2237  3.1495  0.0683
  109en-    CQM 3889   1.368   1.620   5.726  0.1262  0.2150  0.5577
  109en-    CQM 3890   1.278   1.561   5.809  0.2502 -0.2510 -0.6268
  109en-    CQM 3891   1.296   1.563   5.950 -0.5690  0.0788  0.2531
  109en-    CQM 3892   1.210   1.504   6.040  0.0701 -0.2586  0.2198
  109en-    CQM 3893   1.236   1.480   6.175 -0.3181 -0.8145 -0.7385
  109en-    CQM 3894   1.355   1.536   6.229 -0.3179  0.4673  0.1989
  109en-    CQM 3895   1.450   1.590   6.142  0.2873  0.3937 -0.0472
  109en-    CQM 3896   1.421   1.602   6.002 -0.0923  0.4067  0.2005
  109en-    CQM 3897   1.511   1.667   5.917 -0.2347  0.5827  0.3575
  109en-    CQM 3898   1.483   1.678   5.783  0.5800 -0.4027 -1.0179
  109en-    CQM 3899   1.348   1.618   5.584 -0.0665 -0.0728  0.1040
  109en-    HQM 3900   1.182   1.528   5.770 -0.0917 -0.7359  0.5960
  109en-    HQM 3901   1.114   1.470   6.001 -0.2029  2.1529 -1.3028
  109en-    HQM 3902   1.169   1.425   6.240 -0.9859  1.7570  0.8317
  109en-    HQM 3903   1.374   1.535   6.336 -1.7687  1.0131  0.4661
  109en-    HQM 3904   1.543   1.624   6.186  0.6984 -1.2933  0.4180
  109en-    HQM 3905   1.607   1.703   5.953 -0.4520  1.0409  0.4855
  109en-    HQM 3906   1.261   1.572   5.538 -0.6731  2.3051 -1.2299
  109en-    CQM 3907   1.438   1.690   5.500  1.3956 -0.1168  0.3172
  109en-    CQM 3908   1.557   1.749   5.561  0.4938 -0.1964  0.2840
  109en-    CQM 3909   1.649   1.814   5.474 -0.6908  0.5223  0.0955
  109en-    CQM 3910   1.632   1.820   5.333  0.8689 -0.2801  0.0864
  109en-    CQM 3911   1.731   1.888   5.255 -0.1777  0.3347 -0.3823
  109en-    CQM 3912   1.723   1.889   5.114 -0.2468  0.1873 -0.1761
  109en-    CQM 3913   1.601   1.847   5.057 -0.4186  0.4623 -0.7833
  109en-    CQM 3914   1.502   1.782   5.137  0.4502 -0.3359 -0.0572
  109en-    CQM 3915   1.520   1.759   5.279 -0.4415 -0.0567  0.5940
  109en-    CQM 3916   1.427   1.698   5.361 -0.4451 -0.0223  0.5972
  109en-    HQM 3917   1.344   1.653   5.307 -0.0721  0.3182 -0.2633
  109en-    HQM 3918   1.415   1.744   5.084  0.7394 -0.8893 -0.1359
  109en-    HQM 3919   1.584   1.845   4.950  1.4628 -0.8366 -1.0859
  109en-    HQM 3920   1.802   1.946   5.066  0.1537 -0.9914 -0.9453
  109en-    HQM 3921   1.820   1.922   5.307 -0.7865 -0.2139  1.0708
  109en-    HQM 3922   1.741   1.852   5.519 -0.1350  0.8951 -1.3140
  109en-    CQM 3923   1.574   1.747   5.702  0.1043  0.4197 -0.2922
  109en-    HQM 3924   1.660   1.803   5.739  0.2364 -0.0564  0.1235
  110en-    CQM 3925   1.684   1.335   5.709 -0.5699  0.4784 -0.4977
  110en-    CQM 3926   1.589   1.327   5.814  0.5327 -0.2591 -0.8170
  110en-    CQM 3927   1.621   1.255   5.926 -0.7517  0.0549 -0.6967
  110en-    CQM 3928   1.517   1.226   6.021  0.3036 -0.1608  0.4354
  110en-    CQM 3929   1.550   1.155   6.136  0.4352  0.7912 -0.2385
  110en-    CQM 3930   1.685   1.108   6.160  0.8825 -0.0542 -0.2164
  110en-    CQM 3931   1.774   1.123   6.055  0.8377  0.3168  0.3490
  110en-    CQM 3932   1.746   1.187   5.937  0.3516 -0.7032 -0.0682
  110en-    CQM 3933   1.843   1.203   5.836  0.0708  0.3182 -0.4577
  110en-    CQM 3934   1.809   1.270   5.720  0.1803 -0.0657  0.4169
  110en-    CQM 3935   1.656   1.392   5.586  0.6080 -0.1154 -0.4512
  110en-    HQM 3936   1.490   1.370   5.799  0.5719 -0.3114 -1.2546
  110en-    HQM 3937   1.415   1.258   6.000  0.5829 -0.0905 -0.8531
  110en-    HQM 3938   1.471   1.141   6.210  1.3454 -1.5794  0.3333
  110en-    HQM 3939   1.717   1.059   6.252  2.7116  0.6568 -0.4482
  110en-    HQM 3940   1.872   1.075   6.062 -0.3273 -2.2452 -0.1790
  110en-    HQM 3941   1.938   1.150   5.846 -0.2383 -0.8756 -3.2916
  110en-    HQM 3942   1.557   1.435   5.574 -0.0023 -0.7391  2.1542
  110en-    CQM 3943   1.752   1.394   5.479  0.3733 -0.5768 -0.5107
  110en-    CQM 3944   1.880   1.337   5.496 -0.5440  0.1592  0.4664
  110en-    CQM 3945   1.969   1.326   5.390  1.1581  0.4920  0.0084
  110en-    CQM 3946   1.941   1.399   5.272  0.0724 -0.7973 -0.1467
  110en-    CQM 3947   2.029   1.407   5.163  0.6686  0.5747 -0.1229
  110en-    CQM 3948   2.002   1.487   5.052  0.1130  0.1690  0.0404
  110en-    CQM 3949   1.880   1.546   5.036  0.6304 -0.0213  0.1952
  110en-    CQM 3950   1.787   1.537   5.137 -0.0204  0.0023 -0.4623
  110en-    CQM 3951   1.814   1.465   5.253 -0.5722  0.4232  0.0499
  110en-    CQM 3952   1.715   1.459   5.356 -0.3736 -0.3030  0.2732
  110en-    HQM 3953   1.614   1.497   5.343 -0.1366  0.9816  2.0062
  110en-    HQM 3954   1.690   1.586   5.137 -0.9449 -1.7026  1.7851
  110en-    HQM 3955   1.866   1.609   4.949  0.7066 -1.0270 -0.5466
  110en-    HQM 3956   2.083   1.505   4.983  0.3015 -0.5112  0.0846
  110en-    HQM 3957   2.122   1.350   5.165 -0.9143 -2.1267 -1.3631
  110en-    HQM 3958   2.061   1.268   5.392  0.8409 -0.1845 -2.8201
  110en-    CQM 3959   1.905   1.272   5.618 -0.1244  1.3586 -0.3605
  110en-    HQM 3960   2.000   1.226   5.643 -1.7891 -2.3629 -0.4844
  111en-    CQM 3961   1.291   1.107   0.059  0.3032 -0.3594  0.0398
  111en-    CQM 3962   1.190   1.051   0.132  0.2848  0.2025 -0.0794
  111en-    CQM 3963   1.212   1.024   0.271  0.5950 -1.0926 -0.3756
  111en-    CQM 3964   1.114   0.957   0.342 -0.3295 -0.1051 -0.4275
  111en-    CQM 3965   1.123   0.956   0.483 -0.4216  0.8622  0.4121
  111en-    CQM 3966   1.241   0.997   0.545  0.4704  0.5432 -0.0968
  111en-    CQM 3967   1.345   1.058   0.472 -0.4818 -0.2632 -1.2203
  111en-    CQM 3968   1.330   1.071   0.333  0.8295 -0.4598  0.0823
  111en-    CQM 3969   1.428   1.132   0.251 -0.3308  0.2033 -0.5552
  111en-    CQM 3970   1.411   1.148   0.113 -0.5770 -0.4079 -0.0181
  111en-    CQM 3971   1.269   1.118  -0.081 -0.6094  0.2710 -0.3215
  111en-    HQM 3972   1.090   1.038   0.093  1.2424 -1.1386 -2.1453
  111en-    HQM 3973   1.027   0.921   0.288  0.6334 -1.1104 -1.3085
  111en-    HQM 3974   1.047   0.907   0.543  0.4706  0.1536  0.9891
  111en-    HQM 3975   1.251   0.974   0.651 -0.1461 -0.1848 -0.1934
  111en-    HQM 3976   1.436   1.096   0.519 -1.4445  0.5064  0.0528
  111en-    HQM 3977   1.516   1.174   0.300 -0.2099 -0.0653 -0.5432
  111en-    HQM 3978   1.176   1.083  -0.124 -1.4171  2.6472 -0.5833
  111en-    CQM 3979   1.368   1.171  -0.159  0.2744 -0.3641 -0.6790
  111en-    CQM 3980   1.483   1.231  -0.102 -0.0406 -0.0972  0.7149
  111en-    CQM 3981   1.581   1.280  -0.188 -0.9486  0.1661 -0.0504
  111en-    CQM 3982   1.557   1.289  -0.323 -1.0959 -0.5751  0.5402
  111en-    CQM 3983   1.654   1.345  -0.409 -0.1724  0.0953  0.1189
  111en-    CQM 3984   1.631   1.360  -0.544 -0.6581  0.4251  0.7129
  111en-    CQM 3985   1.509   1.323  -0.599  0.3849 -0.0822 -0.3760
  111en-    CQM 3986   1.413   1.262  -0.514 -0.2755  0.0862  0.6180
  111en-    CQM 3987   1.432   1.254  -0.373 -0.2311  0.3404  0.5296
  111en-    CQM 3988   1.339   1.184  -0.295  0.3509 -0.2402  0.0710
  111en-    HQM 3989   1.248   1.145  -0.338 -0.5808 -2.3523  3.7298
  111en-    HQM 3990   1.318   1.233  -0.559 -0.5354  1.1288  0.4800
  111en-    HQM 3991   1.492   1.335  -0.706  1.3211  4.1928 -0.1415
  111en-    HQM 3992   1.715   1.399  -0.600  0.2314  0.4389  2.0290
  111en-    HQM 3993   1.752   1.373  -0.372  0.3112 -1.1532 -0.1709
  111en-    HQM 3994   1.675   1.311  -0.144 -1.0117  1.4907 -0.8249
  111en-    CQM 3995   1.510   1.209   0.036  0.3538 -0.0364 -0.5320
  111en-    HQM 3996   1.604   1.247   0.074  0.5906 -0.8617 -0.3018
  112en-    CQM 3997   1.584   0.786   0.099  0.0969 -1.2062  0.0724
  112en-    CQM 3998   1.484   0.781   0.197 -0.1212  0.1246  0.5670
  112en-    CQM 3999   1.504   0.700   0.312 -0.3660 -0.0585  0.6697
  112en-    CQM 4000   1.404   0.698   0.412 -0.3831 -0.2261  0.3034
  112en-    CQM 4001   1.429   0.632   0.528  0.6482  0.2101  0.2992
  112en-    CQM 4002   1.549   0.560   0.548 -0.9270 -0.2059  0.2432
  112en-    CQM 4003   1.646   0.560   0.447 -0.2804  0.2834  0.0010
  112en-    CQM 4004   1.624   0.631   0.326  0.7172  0.3103 -0.1482
  112en-    CQM 4005   1.726   0.639   0.229  0.5546  0.3280 -0.2560
  112en-    CQM 4006   1.706   0.714   0.111 -0.5253  0.3817  0.5168
  112en-    CQM 4007   1.548   0.853  -0.024 -0.2925 -0.1560 -0.5631
  112en-    HQM 4008   1.389   0.833   0.188 -0.6280 -0.4707  2.3382
  112en-    HQM 4009   1.322   0.766   0.394 -1.2511 -1.8434 -2.2278
  112en-    HQM 4010   1.347   0.622   0.598 -0.0025 -0.0789 -0.4974
  112en-    HQM 4011   1.584   0.508   0.636 -0.7742  0.2586  0.4603
  112en-    HQM 4012   1.744   0.515   0.465 -0.0470  0.9086  0.2962
  112en-    HQM 4013   1.810   0.573   0.250  2.5153  2.7818 -0.1426
  112en-    HQM 4014   1.451   0.901  -0.027  0.0917  0.6278 -0.7269
  112en-    CQM 4015   1.640   0.855  -0.132 -0.0907 -0.2673 -0.5571
  112en-    CQM 4016   1.764   0.780  -0.118 -0.7347  0.2333  0.1848
  112en-    CQM 4017   1.856   0.768  -0.227 -0.1475 -0.4340  0.3661
  112en-    CQM 4018   1.834   0.849  -0.345  0.0912 -0.3197  0.7052
  112en-    CQM 4019   1.923   0.846  -0.455 -0.4746  0.3750 -0.4814
  112en-    CQM 4020   1.899   0.914  -0.574  0.2635 -0.0950 -0.7431
  112en-    CQM 4021   1.779   0.985  -0.587 -0.4696 -0.2664 -0.0850
  112en-    CQM 4022   1.689   0.991  -0.483 -0.2958 -0.2086 -0.3917
  112en-    CQM 4023   1.714   0.925  -0.361 -0.2628 -0.2439 -0.7691
  112en-    CQM 4024   1.618   0.918  -0.258  0.8313 -0.5689  0.0355
  112en-    HQM 4025   1.526   0.972  -0.276  0.2661 -1.8166 -0.9901
  112en-    HQM 4026   1.601   1.054  -0.487  1.7459  2.8881  1.4707
  112en-    HQM 4027   1.766   1.040  -0.680  0.8108 -0.0746 -0.1564
  112en-    HQM 4028   1.980   0.910  -0.646  1.5353  2.0643  0.4869
  112en-    HQM 4029   2.012   0.786  -0.443 -1.4489 -0.6666  1.6255
  112en-    HQM 4030   1.949   0.712  -0.217  0.9044  0.5170 -3.1195
  112en-    CQM 4031   1.793   0.708   0.003  0.3667 -0.3214  0.3304
  112en-    HQM 4032   1.886   0.651   0.009 -0.2917 -1.2539  2.1374
  113en-    CQM 4033   1.330   1.429   1.471 -0.8010 -0.0474 -0.0467
  113en-    CQM 4034   1.227   1.373   1.553 -0.2152  0.4933  0.3684
  113en-    CQM 4035   1.243   1.351   1.691 -0.0377 -0.4723 -0.0242
  113en-    CQM 4036   1.140   1.303   1.773 -0.7080 -0.6265 -0.2507
  113en-    CQM 4037   1.168   1.267   1.902  0.5149 -0.4177 -0.0349
  113en-    CQM 4038   1.296   1.300   1.956 -0.1084 -0.3569  0.3740
  113en-    CQM 4039   1.391   1.363   1.879 -0.3949  0.8070 -0.3651
  113en-    CQM 4040   1.371   1.382   1.743 -0.1607  0.1313  0.0373
  113en-    CQM 4041   1.474   1.437   1.667 -0.0853 -0.3543  0.8433
  113en-    CQM 4042   1.457   1.459   1.527 -0.1291  0.9401  0.3226
  113en-    CQM 4043   1.311   1.443   1.337 -0.5503 -0.5257 -0.0487
  113en-    HQM 4044   1.135   1.337   1.508  0.0996 -1.2919  1.1455
  113en-    HQM 4045   1.045   1.280   1.726 -3.3274  1.3694  3.8037
  113en-    HQM 4046   1.091   1.235   1.970  2.6043 -1.4187  1.9371
  113en-    HQM 4047   1.311   1.290   2.063 -0.0209 -0.6986  0.3300
  113en-    HQM 4048   1.489   1.390   1.917  0.5130 -1.0327 -1.3145
  113en-    HQM 4049   1.572   1.453   1.712  0.8714 -1.8273 -0.6668
  113en-    HQM 4050   1.215   1.417   1.292 -0.5586  1.6878 -1.4190
  113en-    CQM 4051   1.416   1.488   1.256  0.1154  0.0751 -0.5072
  113en-    CQM 4052   1.537   1.532   1.315 -0.7101  0.0860  0.2600
  113en-    CQM 4053   1.641   1.590   1.238 -0.0128 -0.0282 -0.2472
  113en-    CQM 4054   1.617   1.607   1.098 -0.1480  0.5759 -0.4777
  113en-    CQM 4055   1.708   1.668   1.011  0.0639 -0.5267 -0.0871
  113en-    CQM 4056   1.690   1.674   0.875  1.1464 -0.0112 -0.2330
  113en-    CQM 4057   1.579   1.609   0.814 -0.1282  0.4549  0.8019
  113en-    CQM 4058   1.483   1.554   0.897 -0.2107 -0.2861  0.1593
  113en-    CQM 4059   1.496   1.554   1.035 -0.0471 -0.3345  0.7048
  113en-    CQM 4060   1.393   1.502   1.119 -0.4183 -0.4209 -0.2018
  113en-    HQM 4061   1.300   1.477   1.068  0.0727 -1.6310 -0.5278
  113en-    HQM 4062   1.400   1.500   0.852  0.3087 -0.0030 -1.1839
  113en-    HQM 4063   1.570   1.607   0.706  1.6937 -4.1565  0.6218
  113en-    HQM 4064   1.758   1.727   0.809 -0.6124  2.7098  0.0809
  113en-    HQM 4065   1.794   1.715   1.058  0.0443 -1.2814  0.7143
  113en-    HQM 4066   1.735   1.622   1.281 -1.0211  1.9505  0.5723
  113en-    CQM 4067   1.559   1.512   1.452 -0.1760 -0.1962  0.3359
  113en-    HQM 4068   1.648   1.551   1.501  0.1334 -2.1702  1.3911
  114en-    CQM 4069   1.630   1.077   1.507 -0.0630 -0.7080  0.4227
  114en-    CQM 4070   1.527   1.081   1.608  0.6510 -0.4666 -0.3091
  114en-    CQM 4071   1.552   1.013   1.730  0.1107 -0.0636  0.2701
  114en-    CQM 4072   1.449   1.002   1.817 -0.4582  0.4857  0.1615
  114en-    CQM 4073   1.464   0.932   1.941 -0.0975 -0.3227  0.3694
  114en-    CQM 4074   1.590   0.867   1.965 -0.6953  0.0294  0.2276
  114en-    CQM 4075   1.698   0.886   1.876  0.3123 -0.3786  0.3650
  114en-    CQM 4076   1.673   0.949   1.755  0.3936 -1.2924 -0.4525
  114en-    CQM 4077   1.775   0.953   1.659 -0.0385  0.0888  0.2123
  114en-    CQM 4078   1.756   1.012   1.530 -0.4715  0.1755 -0.2082
  114en-    CQM 4079   1.605   1.140   1.384 -0.4374  0.7712 -0.2140
  114en-    HQM 4080   1.438   1.141   1.589  0.3692 -0.7327  0.1502
  114en-    HQM 4081   1.359   1.057   1.794 -1.5719 -1.7793 -1.0417
  114en-    HQM 4082   1.380   0.934   2.009 -1.1967 -0.3462 -0.9610
  114en-    HQM 4083   1.604   0.812   2.058  3.5735 -0.2922 -0.4789
  114en-    HQM 4084   1.796   0.850   1.905  0.0406 -1.0442  0.4701
  114en-    HQM 4085   1.872   0.906   1.674  0.4763  0.4493 -1.8376
  114en-    HQM 4086   1.517   1.200   1.365 -0.9405 -0.4215 -1.7599
  114en-    CQM 4087   1.696   1.125   1.277 -0.3830 -0.9496 -0.5278
  114en-    CQM 4088   1.813   1.056   1.301 -0.6619 -0.4536  1.9474
  114en-    CQM 4089   1.911   1.055   1.200 -0.3575 -0.0045 -0.0128
  114en-    CQM 4090   1.891   1.121   1.080 -0.0071  0.6479  0.3413
  114en-    CQM 4091   1.993   1.119   0.978 -0.0152 -0.1583 -0.2048
  114en-    CQM 4092   1.969   1.192   0.860 -0.2394 -0.1551  0.2357
  114en-    CQM 4093   1.844   1.255   0.840 -0.2376 -0.6897  0.1663
  114en-    CQM 4094   1.750   1.266   0.942  0.4367 -0.0578  0.1547
  114en-    CQM 4095   1.772   1.199   1.064  0.3670  0.1528  0.6224
  114en-    CQM 4096   1.669   1.191   1.157 -0.0966 -0.3695  0.0869
  114en-    HQM 4097   1.580   1.249   1.137  0.3093  0.1225 -0.2914
  114en-    HQM 4098   1.658   1.322   0.926  0.7734  0.4305 -0.0735
  114en-    HQM 4099   1.814   1.316   0.755 -0.0970 -1.2155 -0.2593
  114en-    HQM 4100   2.050   1.199   0.787 -0.3978  1.5487  0.2041
  114en-    HQM 4101   2.089   1.071   0.990  0.6480  0.6739 -1.8967
  114en-    HQM 4102   2.006   1.003   1.209 -0.3348 -0.1957 -1.1940
  114en-    CQM 4103   1.848   1.006   1.427 -0.8154 -0.0916 -0.6388
  114en-    HQM 4104   1.944   0.960   1.445 -0.2719  0.7003 -1.4783
  115en-    CQM 4105   1.357   1.733   2.907  0.0042  0.8744  0.0968
  115en-    CQM 4106   1.252   1.686   2.985 -0.1732 -0.5134 -0.7292
  115en-    CQM 4107   1.272   1.675   3.125  0.3511  0.1421 -0.7675
  115en-    CQM 4108   1.173   1.622   3.201  0.0727  0.3690 -0.4134
  115en-    CQM 4109   1.194   1.593   3.338 -0.1880 -0.2973  0.0167
  115en-    CQM 4110   1.324   1.625   3.398 -0.0560 -0.2816 -0.2815
  115en-    CQM 4111   1.427   1.679   3.320 -0.1876  0.2330 -0.3124
  115en-    CQM 4112   1.400   1.694   3.184  1.0249  0.6334  0.5812
  115en-    CQM 4113   1.504   1.735   3.100 -0.1278  0.2432  0.0971
  115en-    CQM 4114   1.484   1.750   2.964 -0.0168  0.3370  0.0497
  115en-    CQM 4115   1.330   1.753   2.772  0.4958  0.3961  0.6093
  115en-    HQM 4116   1.155   1.668   2.941  0.4645 -1.3676 -1.8049
  115en-    HQM 4117   1.071   1.604   3.168 -0.4489 -0.6104  1.6140
  115en-    HQM 4118   1.117   1.559   3.406 -0.1783  2.6552  1.5473
  115en-    HQM 4119   1.342   1.607   3.504 -0.0997 -1.3080 -0.4440
  115en-    HQM 4120   1.524   1.694   3.367 -0.1896 -0.2617 -0.1499
  115en-    HQM 4121   1.601   1.752   3.146 -1.0283  1.6341  1.4886
  115en-    HQM 4122   1.234   1.731   2.725  1.6788  2.3426 -2.8690
  115en-    CQM 4123   1.434   1.802   2.690 -0.0004 -0.1756  0.2944
  115en-    CQM 4124   1.557   1.829   2.747  1.1978 -0.2360  0.8068
  115en-    CQM 4125   1.656   1.878   2.662 -0.0406  0.5897 -0.0469
  115en-    CQM 4126   1.640   1.886   2.524 -0.4111 -0.0753 -1.0727
  115en-    CQM 4127   1.748   1.918   2.440 -0.0853  0.0177 -0.5709
  115en-    CQM 4128   1.732   1.925   2.299  0.1173 -0.2719  0.7813
  115en-    CQM 4129   1.608   1.902   2.240  0.2625 -0.4811  0.3211
  115en-    CQM 4130   1.502   1.869   2.329  0.1518 -1.1327 -0.6493
  115en-    CQM 4131   1.518   1.865   2.470 -0.1351  0.6089  0.2926
  115en-    CQM 4132   1.411   1.827   2.554  0.7871  0.5612  0.5401
  115en-    HQM 4133   1.310   1.821   2.514  0.9931  1.8149 -0.2025
  115en-    HQM 4134   1.408   1.847   2.279  0.3739 -1.6229 -0.8595
  115en-    HQM 4135   1.587   1.923   2.136 -0.6450 -0.4040  0.5229
  115en-    HQM 4136   1.808   1.978   2.242 -0.1594  1.5391  2.0527
  115en-    HQM 4137   1.849   1.947   2.470  0.7321 -0.4037 -2.8148
  115en-    HQM 4138   1.752   1.900   2.706 -1.2198 -0.2692  3.1420
  115en-    CQM 4139   1.587   1.793   2.882 -0.4724  0.0158 -0.4547
  115en-    HQM 4140   1.685   1.819   2.922 -0.8588 -0.1941  0.6515
  116en-    CQM 4141   1.654   1.401   2.903  0.1208  0.3573 -0.3724
  116en-    CQM 4142   1.555   1.406   2.998 -0.0858  0.0925  0.1164
  116en-    CQM 4143   1.578   1.346   3.123 -0.0367  0.5589  0.4788
  116en-    CQM 4144   1.480   1.357   3.219 -0.4978  0.3529 -0.0163
  116en-    CQM 4145   1.491   1.287   3.340 -0.6674  0.3982  0.5460
  116en-    CQM 4146   1.606   1.213   3.366  0.3755 -0.6535  0.3585
  116en-    CQM 4147   1.711   1.211   3.274 -0.4942  0.4501  0.6205
  116en-    CQM 4148   1.698   1.275   3.153 -0.1122 -0.1744 -0.3413
  116en-    CQM 4149   1.785   1.263   3.046  0.1651 -1.0961  0.0199
  116en-    CQM 4150   1.770   1.332   2.921  0.1385  0.3970  0.1879
  116en-    CQM 4151   1.637   1.469   2.783 -0.4386 -0.1173 -0.1744
  116en-    HQM 4152   1.459   1.455   2.984 -0.3830 -0.5595 -0.1834
  116en-    HQM 4153   1.398   1.426   3.200 -1.0207 -0.8559 -2.4213
  116en-    HQM 4154   1.411   1.286   3.414 -1.1185  1.6720  0.0948
  116en-    HQM 4155   1.622   1.164   3.462 -1.2254  0.5130  1.2466
  116en-    HQM 4156   1.803   1.154   3.284  1.2079  3.2511  1.5000
  116en-    HQM 4157   1.872   1.201   3.066  0.6633 -0.8810 -1.4495
  116en-    HQM 4158   1.541   1.514   2.761 -0.8564 -0.6554  0.5061
  116en-    CQM 4159   1.736   1.455   2.683 -0.0973  0.1331 -0.4653
  116en-    CQM 4160   1.857   1.391   2.710  0.2834 -0.1981  0.0313
  116en-    CQM 4161   1.952   1.384   2.608  0.4842  0.5541  0.0208
  116en-    CQM 4162   1.932   1.444   2.486  0.0912  0.7758  0.4308
  116en-    CQM 4163   2.035   1.452   2.392  0.1834 -0.0036 -0.2172
  116en-    CQM 4164   2.016   1.508   2.263 -0.3033  0.2457  0.0420
  116en-    CQM 4165   1.888   1.557   2.225 -0.5291 -0.0783  0.7471
  116en-    CQM 4166   1.788   1.560   2.322  0.6414  0.4317 -0.1221
  116en-    CQM 4167   1.809   1.506   2.454  0.1346 -0.5408 -0.7093
  116en-    CQM 4168   1.711   1.508   2.558 -1.0542 -0.1360 -0.7047
  116en-    HQM 4169   1.621   1.567   2.543 -1.0259  0.7176  2.1759
  116en-    HQM 4170   1.698   1.617   2.303  0.2619 -0.3086 -0.5680
  116en-    HQM 4171   1.865   1.591   2.124 -2.3439 -3.2158  0.0488
  116en-    HQM 4172   2.099   1.510   2.193 -0.5798  1.0556 -0.2643
  116en-    HQM 4173   2.126   1.397   2.413  0.7395  1.1689  0.4755
  116en-    HQM 4174   2.045   1.334   2.634 -1.5694 -3.3008  0.3077
  116en-    CQM 4175   1.870   1.328   2.829  0.2633 -0.1122 -0.5585
  116en-    HQM 4176   1.971   1.291   2.849  0.6324  0.9222 -0.4837
  117en-    CQM 4177   1.403   2.062   4.289  0.3817 -0.1238 -0.0520
  117en-    CQM 4178   1.308   2.019   4.377 -0.1296 -0.8954  0.2033
  117en-    CQM 4179   1.327   2.017   4.517  0.2142 -0.7392 -0.0066
  117en-    CQM 4180   1.225   1.966   4.602  0.2775 -0.1675 -0.0907
  117en-    CQM 4181   1.265   1.962   4.742  0.8416 -0.0882 -0.4083
  117en-    CQM 4182   1.387   2.005   4.793 -0.9668  0.2674 -0.3495
  117en-    CQM 4183   1.482   2.052   4.708 -0.1915  0.7496 -0.0729
  117en-    CQM 4184   1.455   2.057   4.566 -0.2543 -0.5138 -0.6735
  117en-    CQM 4185   1.559   2.093   4.475  0.3123 -0.1906  0.1550
  117en-    CQM 4186   1.530   2.099   4.339  0.2223 -0.2924  1.4613
  117en-    CQM 4187   1.375   2.068   4.153  0.2516 -0.6009 -0.2578
  117en-    HQM 4188   1.210   1.991   4.339  0.1104 -2.8862  1.0277
  117en-    HQM 4189   1.141   1.907   4.565 -0.3687 -0.0630  1.2102
  117en-    HQM 4190   1.190   1.925   4.812  1.0815  0.0007 -0.0987
  117en-    HQM 4191   1.409   1.998   4.899 -0.2467 -0.5462 -0.5428
  117en-    HQM 4192   1.579   2.070   4.753  1.0808 -1.4686 -1.8014
  117en-    HQM 4193   1.655   2.134   4.507  0.1561  0.8799 -0.7165
  117en-    HQM 4194   1.284   2.040   4.101  1.3459 -2.0634 -1.4351
  117en-    CQM 4195   1.473   2.126   4.067 -0.1373  0.3484  0.0436
  117en-    CQM 4196   1.599   2.167   4.117 -0.9385  0.3601 -0.4578
  117en-    CQM 4197   1.697   2.217   4.036  0.3420 -0.3382  1.1803
  117en-    CQM 4198   1.672   2.237   3.902  0.0212 -0.2537 -0.1811
  117en-    CQM 4199   1.770   2.298   3.819  0.1469  0.8890  0.3137
  117en-    CQM 4200   1.743   2.306   3.681  0.5626 -0.5654  0.0560
  117en-    CQM 4201   1.617   2.275   3.628 -0.9137 -0.0185  0.2088
  117en-    CQM 4202   1.516   2.228   3.715  0.3096  0.2816  0.4229
  117en-    CQM 4203   1.547   2.209   3.846  0.6951  0.4418 -0.1082
  117en-    CQM 4204   1.451   2.145   3.929 -0.5396 -0.0923  0.3974
  117en-    HQM 4205   1.361   2.104   3.884 -1.5892  0.2007  2.1671
  117en-    HQM 4206   1.423   2.211   3.663  0.0464  1.1986  0.5714
  117en-    HQM 4207   1.599   2.284   3.521 -1.5071 -4.2935 -0.1441
  117en-    HQM 4208   1.825   2.346   3.622  0.5311  1.2395  1.1755
  117en-    HQM 4209   1.856   2.343   3.867  1.9298 -0.1564 -1.7848
  117en-    HQM 4210   1.790   2.257   4.075  0.4106 -0.1707  0.8393
  117en-    CQM 4211   1.623   2.159   4.253  0.4339 -0.2595  0.3018
  117en-    HQM 4212   1.720   2.186   4.293  0.2501  2.2246 -0.8439
  118en-    CQM 4213   1.704   1.753   4.288 -0.0706 -0.6848 -0.1880
  118en-    CQM 4214   1.601   1.752   4.386 -0.6411  0.2611  0.2087
  118en-    CQM 4215   1.624   1.688   4.508 -0.1623  0.5074 -0.6546
  118en-    CQM 4216   1.522   1.691   4.604 -0.3236 -0.1465  0.4641
  118en-    CQM 4217   1.540   1.626   4.724 -0.4537  0.1074  0.5635
  118en-    CQM 4218   1.660   1.557   4.758  0.4151 -0.3528  0.1379
  118en-    CQM 4219   1.771   1.568   4.664  0.0558 -0.7602  0.3587
  118en-    CQM 4220   1.750   1.631   4.539 -0.6399  0.3214 -0.0986
  118en-    CQM 4221   1.847   1.628   4.445 -0.1617 -0.2048 -0.2940
  118en-    CQM 4222   1.827   1.690   4.318 -0.5248 -0.6134  0.1637
  118en-    CQM 4223   1.687   1.814   4.164 -0.0257 -0.8686  0.5420
  118en-    HQM 4224   1.505   1.800   4.378 -0.6210  0.5743  1.6719
  118en-    HQM 4225   1.432   1.750   4.592  0.5838  1.2774  0.4992
  118en-    HQM 4226   1.468   1.632   4.805 -1.3006  1.9876 -0.3151
  118en-    HQM 4227   1.677   1.505   4.851 -0.6232  0.6563  0.9044
  118en-    HQM 4228   1.868   1.529   4.693  1.6503  2.9139  0.2890
  118en-    HQM 4229   1.943   1.581   4.464 -1.1107 -2.3565 -0.7671
  118en-    HQM 4230   1.593   1.861   4.138  0.8447 -0.2856 -1.6317
  118en-    CQM 4231   1.785   1.811   4.066 -0.4066 -0.2629  0.0683
  118en-    CQM 4232   1.912   1.751   4.096  0.3318  0.3605  0.3395
  118en-    CQM 4233   2.012   1.757   3.994 -0.7777 -0.6871  0.5401
  118en-    CQM 4234   1.993   1.812   3.866  0.1302  0.2744  0.2482
  118en-    CQM 4235   2.100   1.829   3.775  0.6414  0.0919 -0.1416
  118en-    CQM 4236   2.079   1.897   3.656  0.0257 -0.0485  0.1707
  118en-    CQM 4237   1.948   1.949   3.618  0.6832 -0.0698 -0.3345
  118en-    CQM 4238   1.843   1.932   3.713  0.1627  0.5578 -0.3648
  118en-    CQM 4239   1.864   1.864   3.835  0.3070 -0.9444 -0.5420
  118en-    CQM 4240   1.763   1.867   3.937 -0.2887  0.2464  0.9983
  118en-    HQM 4241   1.672   1.922   3.915  0.0156 -0.2295 -1.6134
  118en-    HQM 4242   1.747   1.981   3.698 -0.0306  0.5160  0.6608
  118en-    HQM 4243   1.936   1.996   3.521  0.3704 -0.2935 -0.4043
  118en-    HQM 4244   2.166   1.916   3.593  1.3978  1.1435  2.3700
  118en-    HQM 4245   2.203   1.799   3.796  1.5491  1.5683 -2.2463
  118en-    HQM 4246   2.104   1.708   4.025  0.4908  0.8004 -0.8238
  118en-    CQM 4247   1.928   1.686   4.220  0.5230  0.2534  0.1563
  118en-    HQM 4248   2.013   1.621   4.237  0.9374  0.7369 -0.0456
  119en-    CQM 4249   1.459   2.423   5.686 -0.1766  0.7181 -0.1686
  119en-    CQM 4250   1.363   2.370   5.768  0.0592  0.1517 -0.4738
  119en-    CQM 4251   1.387   2.370   5.908  0.4676 -0.1718 -0.2109
  119en-    CQM 4252   1.287   2.319   5.995  0.2977  0.6173  0.1284
  119en-    CQM 4253   1.311   2.316   6.133 -1.0450 -0.6385  0.0984
  119en-    CQM 4254   1.437   2.354   6.184 -0.1306  0.2742 -0.1919
  119en-    CQM 4255   1.532   2.406   6.097 -0.5601 -0.0612  0.0477
  119en-    CQM 4256   1.512   2.412   5.961 -0.4214 -0.2102  0.2403
  119en-    CQM 4257   1.614   2.458   5.872 -0.2135 -0.0435 -0.1901
  119en-    CQM 4258   1.586   2.470   5.742 -0.1980  0.1276  0.1469
  119en-    CQM 4259   1.440   2.435   5.543 -0.1506  0.0012 -0.5850
  119en-    HQM 4260   1.263   2.343   5.735  0.3935  0.2280 -1.5883
  119en-    HQM 4261   1.194   2.271   5.964  0.5208  0.3312 -0.0941
  119en-    HQM 4262   1.232   2.278   6.197 -0.3764  1.7470  2.4330
  119en-    HQM 4263   1.459   2.338   6.289 -0.0416 -3.0656 -0.6508
  119en-    HQM 4264   1.626   2.452   6.123 -1.1909  2.4782 -1.9035
  119en-    HQM 4265   1.709   2.488   5.914  0.0195 -3.2537  1.7515
  119en-    HQM 4266   1.348   2.399   5.496 -1.1637  1.6888  0.0722
  119en-    CQM 4267   1.538   2.502   5.464 -0.4167  0.5099 -0.0177
  119en-    CQM 4268   1.658   2.546   5.518 -0.5348 -0.0447 -0.6502
  119en-    CQM 4269   1.770   2.583   5.437  0.2986  0.5525 -0.1694
  119en-    CQM 4270   1.743   2.591   5.299 -0.3423 -0.8626 -0.6726
  119en-    CQM 4271   1.844   2.647   5.225 -0.4409 -0.0136  0.0818
  119en-    CQM 4272   1.822   2.668   5.090  0.2654 -0.3535 -0.6207
  119en-    CQM 4273   1.701   2.623   5.026  0.6602 -0.3739  0.6200
  119en-    CQM 4274   1.601   2.565   5.110 -0.3294 -0.5982  0.3381
  119en-    CQM 4275   1.623   2.547   5.245  0.3720 -0.1990  0.1722
  119en-    CQM 4276   1.519   2.505   5.331  0.1803 -0.0190  0.2799
  119en-    HQM 4277   1.432   2.471   5.274 -1.2907  1.7626  1.4393
  119en-    HQM 4278   1.509   2.530   5.066 -1.6474 -0.2521  2.7348
  119en-    HQM 4279   1.693   2.636   4.918 -1.1016 -0.4486  0.7279
  119en-    HQM 4280   1.901   2.722   5.039  1.4295 -0.9572  0.5249
  119en-    HQM 4281   1.937   2.677   5.273 -0.3938 -2.5739  1.6473
  119en-    HQM 4282   1.869   2.609   5.472 -0.4864  1.9310  1.1043
  119en-    CQM 4283   1.680   2.530   5.656 -0.1074  0.0048 -0.2015
  119en-    HQM 4284   1.779   2.550   5.696 -1.1836  0.2016  2.4574
  120en-    CQM 4285   1.737   2.109   5.714 -0.7153  0.8099 -0.0991
  120en-    CQM 4286   1.645   2.118   5.819  0.3365  0.1484  0.0674
  120en-    CQM 4287   1.664   2.051   5.943 -0.7628  0.7547 -0.4384
  120en-    CQM 4288   1.563   2.053   6.040  0.0012  0.4592  0.4230
  120en-    CQM 4289   1.576   1.966   6.155  0.0764 -0.1058  0.2975
  120en-    CQM 4290   1.695   1.891   6.175 -0.1860 -0.4675 -0.1055
  120en-    CQM 4291   1.793   1.898   6.079 -0.5752  0.0186  0.3615
  120en-    CQM 4292   1.772   1.965   5.959  0.3156 -1.1428  0.2507
  120en-    CQM 4293   1.867   1.961   5.856 -0.2202  0.3677  0.4809
  120en-    CQM 4294   1.850   2.028   5.734 -0.2636 -0.9317 -0.1442
  120en-    CQM 4295   1.723   2.184   5.595  0.1065  0.2501 -0.1166
  120en-    HQM 4296   1.554   2.174   5.802 -1.4046 -1.8424  2.4624
  120en-    HQM 4297   1.470   2.106   6.024  0.0716  1.3675  2.8524
  120en-    HQM 4298   1.498   1.956   6.231  0.9618 -0.5425  1.1583
  120en-    HQM 4299   1.709   1.832   6.265 -3.2604  0.1479  0.8209
  120en-    HQM 4300   1.878   1.832   6.092 -0.9214 -0.5560 -0.2563
  120en-    HQM 4301   1.952   1.894   5.867  1.0122  1.8780  0.3253
  120en-    HQM 4302   1.639   2.251   5.581  1.3146  1.5309 -1.4573
  120en-    CQM 4303   1.825   2.172   5.496  0.3743  0.1554  0.7146
  120en-    CQM 4304   1.942   2.102   5.525  0.0744  0.0574 -0.6078
  120en-    CQM 4305   2.041   2.090   5.419 -0.0516 -0.7566  0.4561
  120en-    CQM 4306   2.020   2.148   5.295  0.3001 -0.3701  0.2717
  120en-    CQM 4307   2.112   2.139   5.190  0.0406  0.4838  0.1394
  120en-    CQM 4308   2.087   2.202   5.070  0.4365  0.8164  0.6779
  120en-    CQM 4309   1.968   2.271   5.049  0.2367 -0.1674  0.2774
  120en-    CQM 4310   1.870   2.276   5.150 -0.1175  0.5128 -0.1469
  120en-    CQM 4311   1.902   2.222   5.274  0.1405 -0.4728  0.4144
  120en-    CQM 4312   1.800   2.231   5.373  0.2112  0.7518  0.4928
  120en-    HQM 4313   1.708   2.286   5.352 -0.5099 -0.5426  0.2114
  120en-    HQM 4314   1.779   2.334   5.139 -0.3614  0.8743  3.2723
  120en-    HQM 4315   1.947   2.318   4.954  1.7615 -0.1468 -0.0618
  120en-    HQM 4316   2.162   2.191   4.992  0.6582  0.5995  0.9221
  120en-    HQM 4317   2.203   2.081   5.193 -0.1602  0.1292 -0.3740
  120en-    HQM 4318   2.133   2.035   5.437  0.8351  0.6436  0.2401
  120en-    CQM 4319   1.953   2.025   5.641 -0.2089  0.5495  0.1417
  120en-    HQM 4320   2.042   1.970   5.672 -0.3395  0.1142 -0.2466
  121en-    CQM 4321   1.355   1.869   0.091  0.2790  0.2690 -0.7924
  121en-    CQM 4322   1.264   1.806   0.175 -0.1081 -0.1196  0.8835
  121en-    CQM 4323   1.283   1.789   0.313 -0.5380 -0.0294  0.7142
  121en-    CQM 4324   1.182   1.736   0.401  0.2949 -0.8467 -0.1918
  121en-    CQM 4325   1.207   1.727   0.538  0.1307 -0.1279 -0.3128
  121en-    CQM 4326   1.331   1.762   0.587 -1.0773 -0.7184  0.1728
  121en-    CQM 4327   1.434   1.820   0.505 -0.3003 -0.1476  0.1775
  121en-    CQM 4328   1.411   1.833   0.366  0.2107  0.3249 -0.2818
  121en-    CQM 4329   1.507   1.890   0.281 -0.1521  0.0554  0.1000
  121en-    CQM 4330   1.481   1.914   0.144 -0.0278 -0.0801  0.0590
  121en-    CQM 4331   1.328   1.880  -0.044  0.3206  0.4206  0.3134
  121en-    HQM 4332   1.175   1.764   0.130 -0.5213  2.3294 -0.6827
  121en-    HQM 4333   1.091   1.701   0.354  1.0423 -0.0931 -2.2678
  121en-    HQM 4334   1.131   1.691   0.607  0.2398 -0.5678 -0.4199
  121en-    HQM 4335   1.360   1.743   0.690 -0.3221  0.3367  0.1687
  121en-    HQM 4336   1.534   1.834   0.543 -0.8682  0.0946  1.5931
  121en-    HQM 4337   1.599   1.930   0.323 -0.2975 -0.5539  1.0203
  121en-    HQM 4338   1.238   1.842  -0.092  1.1888 -2.2579  0.7165
  121en-    CQM 4339   1.421   1.943  -0.130 -0.0241  0.1822  0.4998
  121en-    CQM 4340   1.547   1.986  -0.077  0.0992  0.8305 -0.1858
  121en-    CQM 4341   1.640   2.048  -0.165  0.8198  0.4740 -0.7590
  121en-    CQM 4342   1.608   2.061  -0.300  0.3372 -0.2205  0.6161
  121en-    CQM 4343   1.710   2.112  -0.386 -0.2850 -0.2001 -0.2774
  121en-    CQM 4344   1.678   2.112  -0.525  0.6870  0.4396 -0.6765
  121en-    CQM 4345   1.550   2.061  -0.574 -0.2302  0.4183 -0.5082
  121en-    CQM 4346   1.460   2.002  -0.492 -0.5274 -0.2125 -0.4188
  121en-    CQM 4347   1.491   2.009  -0.351 -0.1021 -0.2807 -0.1297
  121en-    CQM 4348   1.391   1.956  -0.268  0.2218 -0.2505 -0.2145
  121en-    HQM 4349   1.297   1.928  -0.313  0.5413  2.2664 -2.5487
  121en-    HQM 4350   1.367   1.963  -0.530 -0.1317 -0.1969 -1.4018
  121en-    HQM 4351   1.531   2.061  -0.681 -0.7169 -1.1702 -0.4382
  121en-    HQM 4352   1.752   2.133  -0.601  0.8465 -1.7356 -1.1658
  121en-    HQM 4353   1.807   2.142  -0.346  0.7123 -0.4851 -2.3986
  121en-    HQM 4354   1.729   2.074  -0.108 -0.2363 -0.6717  1.4739
  121en-    CQM 4355   1.576   1.973   0.062  0.4866  0.6402  0.0686
  121en-    HQM 4356   1.669   2.007   0.106  2.0554 -1.0040 -1.8470
  122en-    CQM 4357   1.635   1.561   0.101 -0.3846  0.0088 -0.1633
  122en-    CQM 4358   1.530   1.552   0.198 -0.1193  0.2944 -0.0456
  122en-    CQM 4359   1.559   1.483   0.323 -0.5091  0.1987 -0.1148
  122en-    CQM 4360   1.459   1.481   0.417  0.5317 -1.0913 -0.1095
  122en-    CQM 4361   1.476   1.411   0.542 -0.0038  0.4048  0.6092
  122en-    CQM 4362   1.595   1.336   0.566  0.1434 -0.3550  0.6348
  122en-    CQM 4363   1.692   1.343   0.464 -0.0015  0.4089 -0.2174
  122en-    CQM 4364   1.674   1.413   0.342  0.4361  0.2488 -0.2048
  122en-    CQM 4365   1.774   1.413   0.239  0.2876 -0.3687 -0.0555
  122en-    CQM 4366   1.751   1.483   0.121 -0.3433  0.2886  0.2051
  122en-    CQM 4367   1.622   1.633  -0.018 -0.4885  0.2031 -0.2763
  122en-    HQM 4368   1.441   1.616   0.194  0.7347  1.5354  0.4265
  122en-    HQM 4369   1.360   1.523   0.401  0.9995  0.3123  0.6252
  122en-    HQM 4370   1.392   1.407   0.610 -0.3226  0.1314  0.2016
  122en-    HQM 4371   1.622   1.298   0.663  2.6019  0.4078  0.2725
  122en-    HQM 4372   1.783   1.285   0.469 -0.1412  0.1018 -1.1291
  122en-    HQM 4373   1.856   1.343   0.250  0.0023 -0.6966  0.0155
  122en-    HQM 4374   1.531   1.688  -0.041  0.4059  2.9972  2.5285
  122en-    CQM 4375   1.716   1.630  -0.121 -0.0495 -0.3358 -0.7518
  122en-    CQM 4376   1.831   1.549  -0.099 -0.2999 -0.2564  0.2535
  122en-    CQM 4377   1.929   1.532  -0.195 -0.4664  0.2709  0.5688
  122en-    CQM 4378   1.907   1.574  -0.321 -0.2204  0.4027  0.0003
  122en-    CQM 4379   2.003   1.555  -0.421 -0.5304 -0.8574 -0.4844
  122en-    CQM 4380   1.987   1.624  -0.546  0.2251 -0.0667 -0.0123
  122en-    CQM 4381   1.873   1.699  -0.575 -0.2525  0.3768 -0.2039
  122en-    CQM 4382   1.777   1.710  -0.476  0.2653 -0.4903 -0.5248
  122en-    CQM 4383   1.797   1.655  -0.351  0.0372 -0.1692  0.1332
  122en-    CQM 4384   1.698   1.679  -0.252 -0.1451 -0.1027 -0.0059
  122en-    HQM 4385   1.608   1.737  -0.271  0.4812  0.5099 -1.1112
  122en-    HQM 4386   1.689   1.771  -0.493  1.0372  1.2329  1.3259
  122en-    HQM 4387   1.867   1.742  -0.675 -3.4457 -0.4531 -0.4073
  122en-    HQM 4388   2.062   1.611  -0.624  0.0429 -1.0659 -0.0234
  122en-    HQM 4389   2.099   1.507  -0.403 -0.2827 -0.4160 -0.6042
  122en-    HQM 4390   2.017   1.472  -0.174 -0.3711  0.6175  1.1777
  122en-    CQM 4391   1.852   1.482   0.021  0.2708 -0.3400 -0.2511
  122en-    HQM 4392   1.943   1.426   0.040  0.4060 -0.5047 -1.3273
  123en-    CQM 4393   1.403   2.185   1.472 -0.1116 -0.1723 -0.6792
  123en-    CQM 4394   1.290   2.142   1.551  0.5770  0.4922  0.1137
  123en-    CQM 4395   1.310   2.129   1.693  0.3404  0.1041 -0.2041
  123en-    CQM 4396   1.215   2.071   1.775 -0.5334 -0.1404 -0.4574
  123en-    CQM 4397   1.232   2.067   1.911 -0.1992 -0.3720  0.4364
  123en-    CQM 4398   1.354   2.110   1.969  0.1558  0.1976  0.0287
  123en-    CQM 4399   1.454   2.163   1.890  0.5702 -0.5975 -0.2228
  123en-    CQM 4400   1.428   2.175   1.750  0.3939  0.7199  0.1792
  123en-    CQM 4401   1.526   2.236   1.673  0.3566  0.3345 -0.1789
  123en-    CQM 4402   1.517   2.236   1.530 -0.8904 -0.4784 -0.4361
  123en-    CQM 4403   1.388   2.183   1.328 -0.1455  0.4015  0.2988
  123en-    HQM 4404   1.201   2.100   1.505  1.7642 -1.9154 -0.0578
  123en-    HQM 4405   1.126   2.033   1.727 -0.2828 -0.2840 -0.8098
  123en-    HQM 4406   1.156   2.015   1.968 -1.6294 -0.5237 -1.5418
  123en-    HQM 4407   1.362   2.112   2.077  1.2947 -0.8986 -0.0316
  123en-    HQM 4408   1.537   2.211   1.941  0.0890  0.7426 -0.6564
  123en-    HQM 4409   1.617   2.269   1.721 -0.9349  2.6074  0.7880
  123en-    HQM 4410   1.298   2.147   1.280  0.3807  0.2532 -0.5861
  123en-    CQM 4411   1.483   2.253   1.250  0.0816  0.0847  0.0811
  123en-    CQM 4412   1.597   2.307   1.310  0.0677 -0.1410 -0.9069
  123en-    CQM 4413   1.689   2.380   1.235  0.0184 -0.2975 -0.7688
  123en-    CQM 4414   1.674   2.386   1.100 -0.0346 -0.6649 -1.1026
  123en-    CQM 4415   1.767   2.459   1.028 -0.1001  0.0706  0.0787
  123en-    CQM 4416   1.747   2.476   0.890  0.7529 -0.1234  0.5753
  123en-    CQM 4417   1.638   2.408   0.824  0.2593 -0.6474 -0.4516
  123en-    CQM 4418   1.553   2.324   0.893 -0.2582  0.5487  0.4882
  123en-    CQM 4419   1.563   2.325   1.036  0.0538  0.0594  0.6535
  123en-    CQM 4420   1.463   2.266   1.110 -0.3367  0.1040 -0.9560
  123en-    HQM 4421   1.371   2.227   1.068  0.0499  0.8636 -2.5644
  123en-    HQM 4422   1.468   2.277   0.844 -0.4772  0.4058  1.0090
  123en-    HQM 4423   1.622   2.429   0.719  2.1590 -1.1380 -0.8544
  123en-    HQM 4424   1.806   2.548   0.835  0.6364 -1.2897 -1.1010
  123en-    HQM 4425   1.847   2.512   1.079 -0.9387  1.8241 -0.4035
  123en-    HQM 4426   1.768   2.433   1.287  0.2601 -1.2261 -0.1962
  123en-    CQM 4427   1.615   2.297   1.447  0.0628  0.0197  0.2213
  123en-    HQM 4428   1.698   2.343   1.500  0.5772  0.6540 -1.1209
  124en-    CQM 4429   1.710   1.859   1.488 -0.7883  0.0485  0.3046
  124en-    CQM 4430   1.612   1.861   1.589  0.4186 -0.3516 -0.2642
  124en-    CQM 4431   1.621   1.781   1.710  0.5260  0.2663  0.7892
  124en-    CQM 4432   1.525   1.795   1.813 -0.3992  0.3897  1.3812
  124en-    CQM 4433   1.535   1.717   1.928  0.5349  0.5865 -0.0220
  124en-    CQM 4434   1.651   1.639   1.943  0.3546  0.2582 -0.0019
  124en-    CQM 4435   1.752   1.629   1.844 -0.0617 -0.7259  0.3910
  124en-    CQM 4436   1.740   1.702   1.724 -0.4798  0.4484  0.0518
  124en-    CQM 4437   1.842   1.701   1.622 -0.0945  0.2968 -0.0653
  124en-    CQM 4438   1.821   1.774   1.500  0.2741  0.1068  0.2642
  124en-    CQM 4439   1.692   1.934   1.374 -0.0136 -0.1477 -0.7145
  124en-    HQM 4440   1.529   1.931   1.583  0.9291  0.1839 -1.0878
  124en-    HQM 4441   1.438   1.854   1.787  0.2590  1.4155  1.4522
  124en-    HQM 4442   1.466   1.734   2.010  0.6525 -0.7158  0.3533
  124en-    HQM 4443   1.675   1.602   2.042 -0.5026 -0.2492  0.0154
  124en-    HQM 4444   1.828   1.554   1.861 -1.5876 -1.9349  1.9490
  124en-    HQM 4445   1.942   1.663   1.641 -0.8910 -0.9906  1.6642
  124en-    HQM 4446   1.596   1.981   1.355 -2.4423 -3.8019  1.7566
  124en-    CQM 4447   1.786   1.933   1.269  0.8256 -0.4340  0.3007
  124en-    CQM 4448   1.902   1.862   1.282 -0.6954 -0.2577  0.1225
  124en-    CQM 4449   2.004   1.879   1.182 -0.2329 -0.5240 -0.1461
  124en-    CQM 4450   1.974   1.944   1.065  0.2339  0.7708  1.0305
  124en-    CQM 4451   2.071   1.930   0.963  0.9080 -0.2079  0.3927
  124en-    CQM 4452   2.041   1.974   0.834  0.2394 -0.4626 -0.5570
  124en-    CQM 4453   1.923   2.048   0.815 -0.4310  0.2605 -0.0857
  124en-    CQM 4454   1.827   2.065   0.918  0.5718 -0.3628 -0.4313
  124en-    CQM 4455   1.851   2.008   1.043 -0.0392  0.4954 -0.3853
  124en-    CQM 4456   1.761   2.006   1.148  0.2572 -0.5573 -0.7866
  124en-    HQM 4457   1.663   2.050   1.133  1.0760  2.2360  1.5537
  124en-    HQM 4458   1.730   2.107   0.895 -0.0383 -2.1689 -1.2814
  124en-    HQM 4459   1.893   2.074   0.714  0.0534  0.6028 -0.1412
  124en-    HQM 4460   2.105   1.951   0.749  0.0950 -0.6125 -0.6261
  124en-    HQM 4461   2.161   1.869   0.972  0.1416 -1.5403 -0.7555
  124en-    HQM 4462   2.099   1.826   1.186  0.4246  0.5865 -0.7240
  124en-    CQM 4463   1.920   1.777   1.396 -0.7420  0.4108  0.2706
  124en-    HQM 4464   2.018   1.732   1.413 -0.5751  0.8540  0.4800
  125en-    CQM 4465   1.424   2.513   2.913  0.8418  0.8596 -0.6059
  125en-    CQM 4466   1.327   2.448   2.995  0.2604 -0.2807 -1.2860
  125en-    CQM 4467   1.354   2.440   3.137 -0.3373 -0.1433  0.2660
  125en-    CQM 4468   1.260   2.373   3.215 -0.2789 -0.7437 -1.2952
  125en-    CQM 4469   1.273   2.383   3.354  0.2005  0.2204  0.3734
  125en-    CQM 4470   1.376   2.447   3.420 -0.1967 -0.2945  0.3031
  125en-    CQM 4471   1.482   2.507   3.338 -0.0224 -0.1354  0.2666
  125en-    CQM 4472   1.468   2.503   3.192 -0.0549 -0.0274 -0.4398
  125en-    CQM 4473   1.569   2.551   3.108 -0.4933 -0.3345  0.8219
  125en-    CQM 4474   1.543   2.556   2.970 -0.2634 -0.0318  0.0922
  125en-    CQM 4475   1.411   2.514   2.773 -0.2595 -0.7793  0.5317
  125en-    HQM 4476   1.237   2.405   2.951 -0.6375  2.6100 -2.3649
  125en-    HQM 4477   1.183   2.314   3.167 -0.4672 -0.2173 -1.6506
  125en-    HQM 4478   1.197   2.332   3.412 -0.9948  3.5754  1.8185
  125en-    HQM 4479   1.381   2.446   3.529 -0.7098 -0.2072  0.3326
  125en-    HQM 4480   1.575   2.549   3.376 -0.7507  2.1164 -0.3729
  125en-    HQM 4481   1.664   2.587   3.145 -0.8746  1.3292  0.1974
  125en-    HQM 4482   1.318   2.472   2.734 -1.3153  1.9151  0.0171
  125en-    CQM 4483   1.512   2.569   2.686  0.2672 -0.0108  0.1509
  125en-    CQM 4484   1.629   2.617   2.748  0.0672 -0.3195  1.0136
  125en-    CQM 4485   1.731   2.661   2.668 -0.3554  0.1359  0.2674
  125en-    CQM 4486   1.725   2.653   2.526 -1.0064  0.3356 -0.1427
  125en-    CQM 4487   1.827   2.703   2.449 -0.5605 -0.7696 -0.3641
  125en-    CQM 4488   1.814   2.701   2.306  0.9502  0.2399 -0.0523
  125en-    CQM 4489   1.688   2.664   2.243  0.4164  0.0004 -0.1155
  125en-    CQM 4490   1.587   2.617   2.328  0.5455 -0.6071  0.3050
  125en-    CQM 4491   1.607   2.611   2.465 -0.4220  0.0241 -0.1302
  125en-    CQM 4492   1.504   2.567   2.545 -0.6291  0.5039 -0.1068
  125en-    HQM 4493   1.411   2.534   2.501 -0.8202 -0.2219  0.8164
  125en-    HQM 4494   1.490   2.585   2.290 -0.3713 -0.9130  2.7925
  125en-    HQM 4495   1.688   2.665   2.134  0.4905 -1.1688 -0.1314
  125en-    HQM 4496   1.896   2.746   2.250  0.9839 -0.7375 -0.7997
  125en-    HQM 4497   1.913   2.741   2.504 -1.1635  0.9116 -0.5456
  125en-    HQM 4498   1.821   2.693   2.720  0.5117 -0.2836 -0.9525
  125en-    CQM 4499   1.642   2.615   2.889  0.2040 -0.3039 -0.4635
  125en-    HQM 4500   1.738   2.651   2.923  0.4300 -0.1129 -1.2909
  126en-    CQM 4501   1.697   2.178   2.942  0.0891  0.0189  1.2377
  126en-    CQM 4502   1.592   2.167   3.036 -1.0161  0.2069 -0.2977
  126en-    CQM 4503   1.608   2.105   3.163  0.9639  0.7154 -0.1620
  126en-    CQM 4504   1.504   2.112   3.257  0.2052 -0.0499  1.0404
  126en-    CQM 4505   1.525   2.040   3.380 -0.2566  0.6281 -0.2816
  126en-    CQM 4506   1.638   1.961   3.399  0.0734 -0.2944 -0.2171
  126en-    CQM 4507   1.747   1.965   3.305  0.1619 -0.0381  0.6077
  126en-    CQM 4508   1.726   2.036   3.188  0.0152 -0.7835 -0.3698
  126en-    CQM 4509   1.828   2.042   3.093  0.5995  0.0933  0.3858
  126en-    CQM 4510   1.819   2.112   2.968 -1.0543  1.5443  0.2421
  126en-    CQM 4511   1.675   2.243   2.824  0.1995  0.4840  0.2400
  126en-    HQM 4512   1.502   2.226   3.021 -1.7737 -0.9192 -0.2353
  126en-    HQM 4513   1.413   2.163   3.229  0.0849 -1.8301 -2.1232
  126en-    HQM 4514   1.441   2.040   3.450  2.2415 -1.1831  2.8433
  126en-    HQM 4515   1.647   1.896   3.485 -0.9176  0.6941  0.6470
  126en-    HQM 4516   1.846   1.926   3.325  0.7843  1.2039  0.0101
  126en-    HQM 4517   1.915   1.979   3.112  0.0564 -0.4623  1.0074
  126en-    HQM 4518   1.579   2.287   2.798  1.0156  2.6603  0.8498
  126en-    CQM 4519   1.769   2.229   2.714 -0.6214 -0.3384 -0.4223
  126en-    CQM 4520   1.895   2.167   2.736  1.2403  0.2541 -0.1334
  126en-    CQM 4521   1.990   2.148   2.635  0.2590 -0.1128  0.1271
  126en-    CQM 4522   1.956   2.196   2.505  0.6753 -0.3180  0.4466
  126en-    CQM 4523   2.060   2.191   2.408 -0.2458  0.6910 -0.1985
  126en-    CQM 4524   2.032   2.245   2.286 -0.9401 -0.1188 -1.0482
  126en-    CQM 4525   1.911   2.315   2.259  0.7588 -0.2852  0.5467
  126en-    CQM 4526   1.806   2.323   2.354 -0.2620  0.3512 -0.1075
  126en-    CQM 4527   1.834   2.265   2.476  0.3201  0.7250  0.2227
  126en-    CQM 4528   1.743   2.280   2.592  0.1718 -0.3285 -0.1625
  126en-    HQM 4529   1.648   2.329   2.568 -1.0297 -1.9830  1.0983
  126en-    HQM 4530   1.715   2.379   2.336 -0.5930  0.6450  2.2591
  126en-    HQM 4531   1.902   2.354   2.158  1.4925 -0.0497  0.5704
  126en-    HQM 4532   2.109   2.248   2.209  0.6821  0.3256  0.5497
  126en-    HQM 4533   2.153   2.140   2.432 -0.7100 -1.6300 -2.9434
  126en-    HQM 4534   2.077   2.087   2.657  0.5915  0.7785  1.3515
  126en-    CQM 4535   1.918   2.101   2.863  0.5088  0.4112 -1.3632
  126en-    HQM 4536   2.011   2.050   2.887 -1.0417 -0.0652  4.2081
  127en-    CQM 4537   1.459   2.876   4.286  0.3552 -0.8931 -0.2685
  127en-    CQM 4538   1.357   2.814   4.368 -0.4408  0.0651 -0.0100
  127en-    CQM 4539   1.368   2.809   4.506 -0.5696  0.2254 -0.5626
  127en-    CQM 4540   1.265   2.750   4.578 -0.6517 -0.7712 -0.0951
  127en-    CQM 4541   1.273   2.742   4.716  0.2626  0.7819 -0.9277
  127en-    CQM 4542   1.390   2.785   4.778  0.3904  0.0593 -0.7603
  127en-    CQM 4543   1.495   2.843   4.705  0.1044 -0.4437 -0.4004
  127en-    CQM 4544   1.482   2.855   4.566  0.0429 -0.6809 -0.0120
  127en-    CQM 4545   1.593   2.899   4.489  0.4567 -0.4291 -0.2475
  127en-    CQM 4546   1.580   2.914   4.346 -0.4207 -0.4114  0.4120
  127en-    CQM 4547   1.446   2.882   4.151  0.5743 -0.4612  0.4214
  127en-    HQM 4548   1.268   2.770   4.322 -1.0945  0.0480  1.2562
  127en-    HQM 4549   1.179   2.701   4.532 -2.2185 -0.3989  2.3607
  127en-    HQM 4550   1.191   2.702   4.775  1.5108 -2.6109 -1.3910
  127en-    HQM 4551   1.397   2.786   4.886 -0.1107  0.5855 -0.7285
  127en-    HQM 4552   1.591   2.870   4.748 -0.6397 -1.5364  2.0131
  127en-    HQM 4553   1.682   2.941   4.535 -0.0554  0.5914 -0.1768
  127en-    HQM 4554   1.354   2.846   4.106  0.6674 -2.2643  1.6198
  127en-    CQM 4555   1.549   2.938   4.074  0.0754 -0.0488 -0.3148
  127en-    CQM 4556   1.669   2.985   4.132  0.2669 -0.0132 -0.5576
  127en-    CQM 4557   1.769   3.036   4.052  0.3265 -0.2215 -0.0788
  127en-    CQM 4558   1.752   3.046   3.917 -0.1238 -0.2716  0.4298
  127en-    CQM 4559   1.858   3.095   3.837 -0.1809 -0.6555 -0.5520
  127en-    CQM 4560   1.851   3.108   3.699 -0.5695 -0.0978  0.2392
  127en-    CQM 4561   1.726   3.083   3.645  0.4849  0.0883  0.0109
  127en-    CQM 4562   1.617   3.026   3.721  0.1166 -0.1099  0.2286
  127en-    CQM 4563   1.630   3.011   3.860 -0.2588  0.1340  0.1276
  127en-    CQM 4564   1.528   2.955   3.936  0.4450 -0.1325 -0.4115
  127en-    HQM 4565   1.435   2.917   3.894  0.5552  0.8183 -1.5250
  127en-    HQM 4566   1.522   3.008   3.672 -0.2286  1.2756  0.3567
  127en-    HQM 4567   1.709   3.102   3.539 -1.0660 -0.8232  0.0693
  127en-    HQM 4568   1.934   3.161   3.652 -2.3515  1.0086 -1.8053
  127en-    HQM 4569   1.942   3.132   3.894 -3.3890  0.3843  3.7819
  127en-    HQM 4570   1.863   3.064   4.099 -0.0917  1.7646 -0.3981
  127en-    CQM 4571   1.684   2.973   4.273  0.2487 -0.2290 -0.2859
  127en-    HQM 4572   1.780   2.991   4.321 -0.6330 -0.8143  1.7881
  128en-    CQM 4573   1.745   2.538   4.304 -0.8672  0.7482 -0.7378
  128en-    CQM 4574   1.657   2.553   4.404 -0.5520  0.4201  0.0026
  128en-    CQM 4575   1.674   2.493   4.526 -0.4796  0.4104 -0.3521
  128en-    CQM 4576   1.571   2.504   4.622 -0.1158  0.3117 -0.2805
  128en-    CQM 4577   1.591   2.441   4.745 -0.1405 -0.1303 -0.0981
  128en-    CQM 4578   1.697   2.354   4.762  0.2249 -0.8687 -0.0142
  128en-    CQM 4579   1.804   2.333   4.668  0.3010 -0.3241 -0.5762
  128en-    CQM 4580   1.785   2.404   4.544  0.2679 -0.3515 -0.0635
  128en-    CQM 4581   1.874   2.384   4.438 -0.2351 -0.1100  0.0829
  128en-    CQM 4582   1.858   2.462   4.322  0.5301  1.0874  0.7128
  128en-    CQM 4583   1.725   2.602   4.181 -0.4631 -0.1182 -0.4754
  128en-    HQM 4584   1.567   2.609   4.382 -1.1560 -1.7949 -3.5612
  128en-    HQM 4585   1.483   2.561   4.595 -0.0306  0.1494 -0.9116
  128en-    HQM 4586   1.524   2.467   4.826 -1.6140  0.9535 -1.6312
  128en-    HQM 4587   1.698   2.302   4.857  2.3518  1.1537  1.1436
  128en-    HQM 4588   1.882   2.261   4.688 -1.8233 -2.5370 -0.0583
  128en-    HQM 4589   1.959   2.317   4.447  0.7142  1.2851  1.8917
  128en-    HQM 4590   1.643   2.672   4.172  1.2412  1.8133 -1.4507
  128en-    CQM 4591   1.821   2.593   4.079 -0.4917  0.5249  0.4597
  128en-    CQM 4592   1.940   2.517   4.102 -0.5682 -0.5735 -0.0481
  128en-    CQM 4593   2.044   2.518   4.007 -0.2528  0.4499  0.3033
  128en-    CQM 4594   2.027   2.584   3.887 -0.0092 -0.2457  0.0728
  128en-    CQM 4595   2.129   2.587   3.788  0.1549  0.3649 -0.1859
  128en-    CQM 4596   2.128   2.677   3.676 -0.0312 -0.8735  0.0126
  128en-    CQM 4597   2.014   2.753   3.656 -0.2210  0.2589 -0.5474
  128en-    CQM 4598   1.908   2.749   3.751 -0.3247  0.3543  0.4232
  128en-    CQM 4599   1.913   2.662   3.864 -0.4908 -0.4578  0.1260
  128en-    CQM 4600   1.809   2.665   3.957  0.3458  0.4267 -0.1059
  128en-    HQM 4601   1.720   2.723   3.934  0.0966  0.5906  1.2423
  128en-    HQM 4602   1.822   2.815   3.742 -1.1781 -0.6938  0.6939
  128en-    HQM 4603   2.001   2.811   3.565 -1.9831 -2.6748 -2.2466
  128en-    HQM 4604   2.210   2.669   3.606 -0.6287 -0.4974 -0.7312
  128en-    HQM 4605   2.223   2.535   3.804  0.0155  0.3147  0.4686
  128en-    HQM 4606   2.141   2.473   4.026 -0.5549  0.0831  0.9823
  128en-    CQM 4607   1.948   2.448   4.222 -0.7184  0.1821 -0.4364
  128en-    HQM 4608   2.037   2.392   4.249  0.3574  1.8050 -0.5564
  129en-    CQM 4609   1.531   3.198   5.718  0.2479 -0.6270  0.6699
  129en-    CQM 4610   1.433   3.140   5.800 -0.0853 -0.0044  0.1127
  129en-    CQM 4611   1.453   3.122   5.936  0.9497  0.1949  1.0512
  129en-    CQM 4612   1.353   3.069   6.019 -0.0920  0.5510 -0.4616
  129en-    CQM 4613   1.376   3.065   6.155 -0.3974 -0.2890  0.1542
  129en-    CQM 4614   1.495   3.104   6.209  0.1095  0.0117 -0.3702
  129en-    CQM 4615   1.595   3.165   6.130 -0.5134  0.2661  0.3183
  129en-    CQM 4616   1.572   3.171   5.993 -0.9333  0.2229 -0.4796
  129en-    CQM 4617   1.669   3.235   5.911 -0.1048  0.1578 -0.1265
  129en-    CQM 4618   1.653   3.248   5.774  1.0267 -0.5201 -0.8464
  129en-    CQM 4619   1.505   3.206   5.583 -0.5854  0.3502 -0.3803
  129en-    HQM 4620   1.338   3.114   5.754  0.4699  1.4240 -1.9217
  129en-    HQM 4621   1.259   3.037   5.973  0.4977 -1.0901 -0.5560
  129en-    HQM 4622   1.301   3.013   6.213 -0.0282 -0.4402  0.4926
  129en-    HQM 4623   1.523   3.108   6.314 -0.8899 -0.8825 -0.0591
  129en-    HQM 4624   1.687   3.206   6.171  0.8838 -2.5385  0.1445
  129en-    HQM 4625   1.768   3.265   5.945 -0.1694  1.3105 -0.9097
  129en-    HQM 4626   1.406   3.175   5.549 -1.9429  2.2899  1.6703
  129en-    CQM 4627   1.604   3.252   5.500  0.1815 -0.5457 -0.1561
  129en-    CQM 4628   1.725   3.303   5.547 -0.6022  0.2252  0.5319
  129en-    CQM 4629   1.818   3.358   5.451  0.1880 -0.1670 -0.0239
  129en-    CQM 4630   1.784   3.374   5.316 -0.9492 -0.3148  0.2223
  129en-    CQM 4631   1.878   3.423   5.227  0.3405 -0.0996 -0.2928
  129en-    CQM 4632   1.844   3.436   5.093 -0.0522 -0.5263  0.1833
  129en-    CQM 4633   1.722   3.397   5.046 -0.2853 -0.0479 -0.0097
  129en-    CQM 4634   1.633   3.337   5.133  0.1333  0.0930 -0.2497
  129en-    CQM 4635   1.669   3.318   5.267  0.3984 -0.0312  0.0031
  129en-    CQM 4636   1.582   3.251   5.357  0.3588 -0.4799  0.0309
  129en-    HQM 4637   1.491   3.205   5.319  0.9727 -1.4781 -0.2381
  129en-    HQM 4638   1.543   3.292   5.093 -0.4306 -0.8683  2.0141
  129en-    HQM 4639   1.695   3.413   4.942 -0.0369 -2.4408 -0.4758
  129en-    HQM 4640   1.915   3.482   5.025 -0.6539  0.6555  0.3496
  129en-    HQM 4641   1.976   3.452   5.264  1.7015 -1.3198 -2.8699
  129en-    HQM 4642   1.912   3.398   5.487  0.7963  0.6817 -2.4004
  129en-    CQM 4643   1.748   3.298   5.684 -0.1221  0.3369  0.7049
  129en-    HQM 4644   1.838   3.342   5.724  0.5518  0.9855 -1.4445
  130en-    CQM 4645   1.796   2.859   5.719 -0.0844  0.2040 -0.5252
  130en-    CQM 4646   1.691   2.864   5.819 -0.2922 -0.8099  0.3169
  130en-    CQM 4647   1.718   2.799   5.938 -0.6077  0.0368 -0.4022
  130en-    CQM 4648   1.618   2.803   6.041 -0.9940  0.3269  0.0302
  130en-    CQM 4649   1.649   2.752   6.161 -0.3343 -0.1214  0.0002
  130en-    CQM 4650   1.777   2.696   6.194 -0.0072 -0.0685  0.0095
  130en-    CQM 4651   1.870   2.690   6.097 -0.2286  0.2170  0.0532
  130en-    CQM 4652   1.844   2.741   5.969 -0.1259 -0.5212 -0.0382
  130en-    CQM 4653   1.945   2.738   5.870 -0.2665 -0.4942  0.3472
  130en-    CQM 4654   1.922   2.796   5.744  0.3194  0.4937  0.7019
  130en-    CQM 4655   1.773   2.924   5.597  0.7579 -0.1329 -0.1721
  130en-    HQM 4656   1.601   2.922   5.806 -1.0109 -2.0437 -0.3275
  130en-    HQM 4657   1.521   2.848   6.028  0.9370  4.7084 -0.2207
  130en-    HQM 4658   1.579   2.768   6.243  1.0258 -0.8698  1.3367
  130en-    HQM 4659   1.795   2.659   6.295  0.3678  1.9451  0.6879
  130en-    HQM 4660   1.964   2.637   6.115 -0.0812 -0.2687 -2.0187
  130en-    HQM 4661   2.041   2.694   5.897  0.9393  3.8658  3.8191
  130en-    HQM 4662   1.673   2.962   5.579 -0.2197 -1.4899  2.1343
  130en-    CQM 4663   1.874   2.927   5.500  0.2250  0.4768 -0.9524
  130en-    CQM 4664   1.993   2.862   5.525 -0.4752 -0.4864 -0.2360
  130en-    CQM 4665   2.099   2.863   5.427 -0.2996 -0.1518  0.5900
  130en-    CQM 4666   2.075   2.936   5.315  0.1757  0.1726 -0.3651
  130en-    CQM 4667   2.182   2.933   5.219 -0.1299  0.3697 -0.4004
  130en-    CQM 4668   2.166   3.002   5.101  0.5964  0.5105  0.4115
  130en-    CQM 4669   2.046   3.064   5.073 -0.7143  0.1551  0.4628
  130en-    CQM 4670   1.941   3.071   5.165 -0.0831  0.6729 -0.2207
  130en-    CQM 4671   1.952   3.000   5.289  0.6848  0.5250  0.6288
  130en-    CQM 4672   1.847   2.995   5.386 -0.5117 -0.1850 -0.0805
  130en-    HQM 4673   1.752   3.043   5.366  0.3234  1.7427  0.4431
  130en-    HQM 4674   1.858   3.136   5.140 -0.7073 -0.1237 -0.2582
  130en-    HQM 4675   2.050   3.135   4.990  0.0997 -0.9797 -0.4921
  130en-    HQM 4676   2.248   3.020   5.031 -0.8157  0.8956 -1.1873
  130en-    HQM 4677   2.274   2.885   5.250 -0.0172 -0.1346 -1.4813
  130en-    HQM 4678   2.192   2.806   5.432 -1.0479 -1.3111  1.9421
  130en-    CQM 4679   2.019   2.796   5.645 -0.1329  0.2750  0.5209
  130en-    HQM 4680   2.117   2.755   5.667  1.8344  3.5426 -1.7326
  131en-    CQM 4681   1.427   2.618   0.058  0.4086 -0.6370  0.5564
  131en-    CQM 4682   1.333   2.559   0.140 -0.8249 -0.1197 -0.7743
  131en-    CQM 4683   1.351   2.562   0.281 -0.6696 -0.2171  0.3368
  131en-    CQM 4684   1.247   2.520   0.369  0.9785  0.3205 -0.7946
  131en-    CQM 4685   1.275   2.517   0.510  0.0012  0.2769  0.3156
  131en-    CQM 4686   1.394   2.554   0.567  0.3787 -0.6950 -0.4974
  131en-    CQM 4687   1.491   2.599   0.479 -0.5070  0.4178 -0.9010
  131en-    CQM 4688   1.470   2.614   0.339  0.1676  0.2741 -0.2914
  131en-    CQM 4689   1.570   2.657   0.256  0.8082  0.2871 -0.0228
  131en-    CQM 4690   1.545   2.667   0.119  0.4067 -0.6395 -0.5293
  131en-    CQM 4691   1.411   2.626  -0.083 -0.2438 -0.4826  0.6122
  131en-    HQM 4692   1.243   2.513   0.102  1.0858 -3.2374 -1.7456
  131en-    HQM 4693   1.153   2.477   0.336  0.3497  2.4694 -1.9424
  131en-    HQM 4694   1.195   2.473   0.569  2.8328 -1.6869  2.8428
  131en-    HQM 4695   1.411   2.557   0.674  1.8567 -1.8942 -0.6663
  131en-    HQM 4696   1.588   2.627   0.519 -1.0571  1.0703 -0.0061
  131en-    HQM 4697   1.667   2.692   0.291  2.1080 -1.4138 -1.8253
  131en-    HQM 4698   1.330   2.571  -0.129  1.1233 -0.3148 -2.0682
  131en-    CQM 4699   1.509   2.683  -0.163 -0.1444 -0.0193  0.0302
  131en-    CQM 4700   1.627   2.737  -0.101 -0.3048 -0.0049  0.3126
  131en-    CQM 4701   1.724   2.796  -0.181  0.6525 -0.5675 -0.1417
  131en-    CQM 4702   1.698   2.804  -0.321 -0.6557 -0.0226  0.1637
  131en-    CQM 4703   1.806   2.849  -0.410  0.3027  0.1955  0.3723
  131en-    CQM 4704   1.789   2.843  -0.547 -0.8431  0.3877  0.3451
  131en-    CQM 4705   1.668   2.793  -0.601  0.0720 -0.2686 -0.4021
  131en-    CQM 4706   1.560   2.759  -0.517  0.0196  0.7182 -0.5077
  131en-    CQM 4707   1.579   2.761  -0.376 -0.6304  0.5884 -0.2424
  131en-    CQM 4708   1.485   2.692  -0.298 -0.4659  0.3656  0.1113
  131en-    HQM 4709   1.391   2.667  -0.347  0.4465  0.4289 -1.7374
  131en-    HQM 4710   1.472   2.708  -0.555 -0.9618  1.9970  0.0194
  131en-    HQM 4711   1.651   2.777  -0.707  0.6839  0.3974 -0.6043
  131en-    HQM 4712   1.859   2.874  -0.624 -0.1928 -1.8147 -0.0095
  131en-    HQM 4713   1.903   2.878  -0.369  0.7947 -2.2094  1.0140
  131en-    HQM 4714   1.817   2.834  -0.141 -0.4836  4.1227 -1.6865
  131en-    CQM 4715   1.646   2.729   0.038  0.2644  0.0883  0.0105
  131en-    HQM 4716   1.732   2.776   0.085  1.3855 -1.4065 -0.5175
  132en-    CQM 4717   1.693   2.310   0.100 -0.1913  0.0131  0.1231
  132en-    CQM 4718   1.591   2.308   0.199  0.0397  0.2889  0.1704
  132en-    CQM 4719   1.609   2.249   0.323  1.5962 -0.3274 -0.3796
  132en-    CQM 4720   1.501   2.253   0.419 -0.1452 -0.1475  0.0398
  132en-    CQM 4721   1.523   2.186   0.542 -0.1785  0.3263 -0.7900
  132en-    CQM 4722   1.648   2.126   0.570 -0.0665 -0.2816 -0.1587
  132en-    CQM 4723   1.746   2.118   0.471 -0.3062  0.4312  0.3443
  132en-    CQM 4724   1.730   2.185   0.347  0.4472 -0.7632  0.2562
  132en-    CQM 4725   1.826   2.172   0.246 -0.1018 -0.2451 -0.5168
  132en-    CQM 4726   1.810   2.237   0.123 -0.0449  0.3197  0.4086
  132en-    CQM 4727   1.671   2.371  -0.021  0.1741 -0.1655  0.0039
  132en-    HQM 4728   1.494   2.349   0.172  0.4379  1.0913 -0.0666
  132en-    HQM 4729   1.408   2.301   0.393 -1.5971 -1.8965  1.8262
  132en-    HQM 4730   1.453   2.195   0.624 -2.2111  1.6206 -2.6409
  132en-    HQM 4731   1.667   2.073   0.663  2.0010 -2.1137 -1.5473
  132en-    HQM 4732   1.836   2.058   0.483 -0.5150 -0.1872 -1.0056
  132en-    HQM 4733   1.918   2.117   0.265 -0.2091  0.4143  2.2355
  132en-    HQM 4734   1.581   2.427  -0.044  1.9775  1.3294 -3.9457
  132en-    CQM 4735   1.771   2.378  -0.122 -0.2644 -0.2579  0.1334
  132en-    CQM 4736   1.895   2.307  -0.096 -0.1482 -0.1327 -0.2352
  132en-    CQM 4737   1.998   2.313  -0.190 -0.3879 -0.1711  0.1102
  132en-    CQM 4738   1.974   2.362  -0.318  0.1724  0.2673  0.3225
  132en-    CQM 4739   2.087   2.365  -0.405 -0.6081 -0.2968  0.0192
  132en-    CQM 4740   2.063   2.409  -0.537 -0.4165  0.3119  0.2604
  132en-    CQM 4741   1.939   2.474  -0.573  0.1304 -0.2191  0.0799
  132en-    CQM 4742   1.834   2.488  -0.474  0.2846  0.5458  0.3181
  132en-    CQM 4743   1.854   2.430  -0.346  0.3557 -0.0118  0.1528
  132en-    CQM 4744   1.752   2.440  -0.245 -0.2227  0.4657  0.1606
  132en-    HQM 4745   1.654   2.485  -0.258 -0.4263  0.6050  1.9877
  132en-    HQM 4746   1.745   2.547  -0.493 -1.6449 -1.3090  3.2670
  132en-    HQM 4747   1.920   2.527  -0.666 -0.8178  0.8273  0.8496
  132en-    HQM 4748   2.149   2.416  -0.604 -0.0146 -0.2622  0.7105
  132en-    HQM 4749   2.181   2.320  -0.375 -0.3957  0.2698  0.2091
  132en-    HQM 4750   2.085   2.250  -0.175 -0.6399 -0.9563 -1.6786
  132en-    CQM 4751   1.913   2.237   0.028 -0.2196 -0.7648  0.0940
  132en-    HQM 4752   2.009   2.187   0.036  0.6449  0.5536 -1.6491
  133en-    CQM 4753   1.454   2.947   1.497 -0.3845 -0.6047  0.0820
  133en-    CQM 4754   1.357   2.899   1.579  0.5980 -0.1583  0.2860
  133en-    CQM 4755   1.388   2.881   1.716  0.2660 -0.4841  0.1941
  133en-    CQM 4756   1.284   2.831   1.804 -0.3192  0.8338 -0.5702
  133en-    CQM 4757   1.317   2.811   1.942  0.2437  0.0482 -0.0227
  133en-    CQM 4758   1.447   2.838   1.994  0.5760 -0.7870 -0.2266
  133en-    CQM 4759   1.537   2.896   1.908  0.1443  0.0804  0.2265
  133en-    CQM 4760   1.512   2.918   1.773  0.5481  0.6610 -0.0210
  133en-    CQM 4761   1.604   2.982   1.689  0.8650  0.2434  0.0904
  133en-    CQM 4762   1.572   2.998   1.552  0.7760 -0.2675 -0.0984
  133en-    CQM 4763   1.433   2.955   1.355  0.5512  0.4264 -0.4907
  133en-    HQM 4764   1.264   2.860   1.539  0.0299  1.9530 -0.4783
  133en-    HQM 4765   1.183   2.811   1.770  0.2716 -1.7192 -0.8758
  133en-    HQM 4766   1.238   2.773   2.006  0.8075 -2.1778 -0.6146
  133en-    HQM 4767   1.472   2.810   2.096  0.8493  0.8701  0.1652
  133en-    HQM 4768   1.630   2.936   1.947  0.4054 -0.0555 -0.2597
  133en-    HQM 4769   1.698   3.014   1.731  0.0572  0.4007  1.8240
  133en-    HQM 4770   1.342   2.905   1.320  1.9375 -1.6252 -1.2467
  133en-    CQM 4771   1.531   3.014   1.273  0.3227  0.3529  0.1505
  133en-    CQM 4772   1.647   3.064   1.328 -0.4456 -0.2423 -0.6625
  133en-    CQM 4773   1.744   3.124   1.250 -0.6016 -0.3410  0.2282
  133en-    CQM 4774   1.723   3.131   1.112  0.4088  0.0124 -0.2948
  133en-    CQM 4775   1.823   3.185   1.030 -0.6997 -0.6303  0.0829
  133en-    CQM 4776   1.797   3.200   0.890 -0.4054  0.0377 -0.1596
  133en-    CQM 4777   1.680   3.147   0.833  0.1623  0.0974 -0.6662
  133en-    CQM 4778   1.587   3.085   0.920  0.6363 -0.2440 -0.2277
  133en-    CQM 4779   1.607   3.082   1.061 -0.1420 -0.4406 -0.3248
  133en-    CQM 4780   1.509   3.018   1.135  0.6238  0.2215 -0.0294
  133en-    HQM 4781   1.419   2.979   1.088 -0.4906 -1.3733  3.2395
  133en-    HQM 4782   1.489   3.057   0.885  0.5418 -1.6537  1.1299
  133en-    HQM 4783   1.661   3.155   0.726  1.4491 -1.5565 -1.0247
  133en-    HQM 4784   1.871   3.260   0.837  0.0505 -0.2404  0.1573
  133en-    HQM 4785   1.916   3.220   1.073  0.4291 -2.7429 -0.6054
  133en-    HQM 4786   1.841   3.152   1.290  0.3235 -0.6398 -1.7424
  133en-    CQM 4787   1.665   3.061   1.468 -0.6561 -0.1952 -0.1985
  133en-    HQM 4788   1.756   3.105   1.507 -1.1716 -0.7738  1.6781
  134en-    CQM 4789   1.741   2.618   1.487 -0.3496 -0.6425 -0.2320
  134en-    CQM 4790   1.643   2.609   1.585  0.0457 -0.6855 -0.8020
  134en-    CQM 4791   1.667   2.539   1.705  0.5613 -0.3502 -0.1353
  134en-    CQM 4792   1.568   2.543   1.807  0.1684 -0.1395  0.3001
  134en-    CQM 4793   1.603   2.496   1.932 -0.3091 -0.9791  0.5386
  134en-    CQM 4794   1.721   2.432   1.964  0.2514  0.2439  0.3272
  134en-    CQM 4795   1.821   2.433   1.860  0.1415 -0.1560 -0.3920
  134en-    CQM 4796   1.791   2.486   1.730  0.4192  0.0368  0.1025
  134en-    CQM 4797   1.892   2.493   1.634 -0.0645 -0.1597  0.0004
  134en-    CQM 4798   1.869   2.561   1.511  1.0318  0.0023 -0.5610
  134en-    CQM 4799   1.728   2.695   1.371  0.9828 -0.5075  0.2224
  134en-    HQM 4800   1.556   2.675   1.583  0.9716  0.5389 -1.1533
  134en-    HQM 4801   1.469   2.588   1.804 -0.0543 -0.5572  1.2374
  134en-    HQM 4802   1.526   2.506   2.008 -0.8946  1.8724 -0.3949
  134en-    HQM 4803   1.730   2.388   2.062 -0.3393 -1.0094 -0.1764
  134en-    HQM 4804   1.913   2.383   1.888 -0.5932 -0.9392  0.7121
  134en-    HQM 4805   1.995   2.460   1.648  0.2708  0.4813 -0.8783
  134en-    HQM 4806   1.636   2.752   1.367  0.2947 -1.6444 -0.3704
  134en-    CQM 4807   1.837   2.713   1.281  0.4615 -0.1080 -0.2370
  134en-    CQM 4808   1.958   2.649   1.298 -0.3178  0.3962  0.8019
  134en-    CQM 4809   2.059   2.657   1.198  0.0919  0.0822  0.3802
  134en-    CQM 4810   2.038   2.724   1.082 -0.2840 -0.3630  0.7887
  134en-    CQM 4811   2.146   2.739   0.990 -0.4572  0.1413  0.1308
  134en-    CQM 4812   2.119   2.801   0.864 -0.2684 -0.6923  0.9152
  134en-    CQM 4813   1.993   2.868   0.843  0.3641 -0.0669  0.2179
  134en-    CQM 4814   1.890   2.858   0.941  0.3515  0.4953  0.5013
  134en-    CQM 4815   1.911   2.785   1.058  0.4499 -0.1354 -0.9993
  134en-    CQM 4816   1.813   2.775   1.155  0.0855  0.1163 -0.3213
  134en-    HQM 4817   1.720   2.832   1.156 -0.9498 -1.5231 -1.1262
  134en-    HQM 4818   1.798   2.908   0.914  0.6132  1.3815  1.2502
  134en-    HQM 4819   1.989   2.914   0.745 -2.0384 -0.9890 -0.1381
  134en-    HQM 4820   2.203   2.788   0.797 -0.4506 -2.6461  1.0422
  134en-    HQM 4821   2.239   2.687   1.009 -1.1391 -0.2696  2.5020
  134en-    HQM 4822   2.152   2.608   1.226  0.4694  0.2066 -0.6092
  134en-    CQM 4823   1.971   2.576   1.414  0.6832  0.0735  0.1973
  134en-    HQM 4824   2.067   2.531   1.439 -0.1930 -1.2920  1.1447
  135en-    CQM 4825   1.506   3.278   2.891 -0.3545  0.0051  0.3106
  135en-    CQM 4826   1.404   3.236   2.975 -0.6474  0.0159 -0.5179
  135en-    CQM 4827   1.417   3.236   3.118  0.2865 -0.6598  0.1218
  135en-    CQM 4828   1.315   3.182   3.196 -0.1638 -0.0944  0.0114
  135en-    CQM 4829   1.330   3.191   3.335 -0.0121 -0.4466  0.8608
  135en-    CQM 4830   1.459   3.219   3.390 -0.4709 -0.5477  0.1139
  135en-    CQM 4831   1.570   3.255   3.311  0.4013 -0.1199 -0.1784
  135en-    CQM 4832   1.545   3.275   3.174 -0.2516 -1.1374 -0.1775
  135en-    CQM 4833   1.642   3.333   3.085  0.1061  0.2638 -0.0528
  135en-    CQM 4834   1.620   3.332   2.944  0.1125 -0.3885  0.5034
  135en-    CQM 4835   1.481   3.287   2.751  0.2128 -0.0457  0.7168
  135en-    HQM 4836   1.305   3.213   2.938 -0.5212  0.2070 -0.9772
  135en-    HQM 4837   1.217   3.156   3.157 -0.4535  0.9878  0.0122
  135en-    HQM 4838   1.255   3.143   3.397 -1.2905  0.0448 -0.2860
  135en-    HQM 4839   1.480   3.200   3.495 -0.4943 -1.7095 -0.0861
  135en-    HQM 4840   1.668   3.274   3.354 -0.1808 -1.3307  1.7504
  135en-    HQM 4841   1.735   3.375   3.122 -0.3568  0.9672  0.3183
  135en-    HQM 4842   1.385   3.250   2.718  0.2556  0.0270  0.5133
  135en-    CQM 4843   1.577   3.341   2.664  0.3272  0.4044 -0.3528
  135en-    CQM 4844   1.694   3.394   2.721  0.1127 -0.5113 -0.5723
  135en-    CQM 4845   1.796   3.444   2.635 -0.0235 -0.2785 -0.1563
  135en-    CQM 4846   1.780   3.447   2.496  0.3948 -0.4732 -0.4486
  135en-    CQM 4847   1.878   3.498   2.408 -0.2585 -0.1394 -0.3410
  135en-    CQM 4848   1.852   3.513   2.270  0.0289  0.3897 -0.1529
  135en-    CQM 4849   1.729   3.472   2.220  0.0723  1.1651  0.5754
  135en-    CQM 4850   1.636   3.399   2.302 -0.6732  0.1881  0.5332
  135en-    CQM 4851   1.657   3.392   2.444 -1.0476 -0.2353  0.1725
  135en-    CQM 4852   1.563   3.329   2.526  0.2106 -0.3865 -0.1269
  135en-    HQM 4853   1.488   3.267   2.479 -0.2505  0.6455 -0.7695
  135en-    HQM 4854   1.559   3.348   2.245  0.0029 -0.2567  0.0006
  135en-    HQM 4855   1.709   3.470   2.113  1.7746 -1.5371  0.2471
  135en-    HQM 4856   1.921   3.572   2.210  0.5945  1.2549  1.3050
  135en-    HQM 4857   1.973   3.532   2.450  0.3566 -1.9873 -0.1761
  135en-    HQM 4858   1.880   3.496   2.681 -0.0451  1.1135 -1.6396
  135en-    CQM 4859   1.714   3.385   2.860  0.0838 -0.4973  0.0858
  135en-    HQM 4860   1.814   3.400   2.900  0.2722 -0.9955 -0.1882
  136en-    CQM 4861   1.784   2.939   2.919 -0.3281  0.0836  0.2059
  136en-    CQM 4862   1.685   2.946   3.018  0.3982 -0.5052 -0.4321
  136en-    CQM 4863   1.702   2.889   3.140 -0.3556 -0.2281  0.0439
  136en-    CQM 4864   1.602   2.913   3.239 -0.3466  0.1858 -0.3763
  136en-    CQM 4865   1.621   2.853   3.368 -0.7158 -0.2182  0.1746
  136en-    CQM 4866   1.741   2.784   3.398 -0.9330 -0.2434 -0.1222
  136en-    CQM 4867   1.841   2.777   3.301 -1.1138  0.1532  0.0272
  136en-    CQM 4868   1.822   2.825   3.173 -0.6972  0.1301  0.0770
  136en-    CQM 4869   1.921   2.819   3.074  0.5230  0.0991  0.3046
  136en-    CQM 4870   1.904   2.875   2.946  0.8132  0.0672  0.7126
  136en-    CQM 4871   1.768   3.006   2.798 -0.1280  0.0277  0.3699
  136en-    HQM 4872   1.595   3.003   2.998  1.0140  0.2665 -1.0508
  136en-    HQM 4873   1.515   2.975   3.221 -1.0627 -0.7105 -0.0445
  136en-    HQM 4874   1.551   2.874   3.448  1.8247  0.1366  2.3742
  136en-    HQM 4875   1.758   2.743   3.497  1.8063  2.0044  0.3927
  136en-    HQM 4876   1.932   2.718   3.314 -2.9927 -2.7246  0.4776
  136en-    HQM 4877   2.015   2.768   3.095 -1.4299 -3.6441  0.3569
  136en-    HQM 4878   1.688   3.079   2.787 -0.7668 -0.6591  0.4413
  136en-    CQM 4879   1.868   2.998   2.698  0.6359 -0.0170  0.0440
  136en-    CQM 4880   1.985   2.930   2.722  0.4396 -0.2808 -0.0148
  136en-    CQM 4881   2.088   2.925   2.627  0.0805 -0.4217 -0.1356
  136en-    CQM 4882   2.069   2.992   2.505  0.3007 -0.4474 -0.3031
  136en-    CQM 4883   2.161   2.993   2.403  0.3610 -0.1428  0.7070
  136en-    CQM 4884   2.142   3.058   2.276 -0.2762  0.8798  0.1430
  136en-    CQM 4885   2.022   3.129   2.256 -0.2511  0.2604 -0.4800
  136en-    CQM 4886   1.922   3.114   2.354 -0.1236 -1.0231 -0.4007
  136en-    CQM 4887   1.943   3.045   2.477  0.1594  0.2886  0.1165
  136en-    CQM 4888   1.849   3.061   2.577  0.4045 -0.1337 -0.2969
  136en-    HQM 4889   1.763   3.124   2.552  0.2979 -0.4200 -0.6692
  136en-    HQM 4890   1.830   3.167   2.332  0.3424  0.2182  0.6188
  136en-    HQM 4891   2.006   3.176   2.160  0.3395  2.2445  0.3565
  136en-    HQM 4892   2.221   3.053   2.201 -0.7891 -0.0105 -0.3427
  136en-    HQM 4893   2.258   2.949   2.422  0.8862  0.9770  0.6671
  136en-    HQM 4894   2.185   2.882   2.649 -0.5082 -0.3373  2.7457
  136en-    CQM 4895   2.004   2.871   2.848 -0.0221 -0.2809  1.0954
  136en-    HQM 4896   2.103   2.836   2.876 -0.9246 -2.3471  1.8059
  137en-    CQM 4897   1.539   3.607   4.298 -0.1820 -0.2252  0.3888
  137en-    CQM 4898   1.441   3.551   4.377 -0.5147 -0.4415  0.2905
  137en-    CQM 4899   1.463   3.544   4.517  0.2512 -0.1847 -0.6705
  137en-    CQM 4900   1.359   3.494   4.604 -0.6916 -0.9818  0.8400
  137en-    CQM 4901   1.382   3.505   4.744  0.1306 -0.3714  0.8733
  137en-    CQM 4902   1.504   3.550   4.800  0.2192  0.4464  0.3774
  137en-    CQM 4903   1.607   3.592   4.716  0.4234 -0.1858 -0.0054
  137en-    CQM 4904   1.585   3.585   4.576  0.0105  0.1505  0.8742
  137en-    CQM 4905   1.688   3.640   4.497 -0.2032  0.3393 -0.2635
  137en-    CQM 4906   1.663   3.651   4.360 -0.4258  0.0067  0.2424
  137en-    CQM 4907   1.522   3.622   4.162  0.2770  0.0505 -0.0526
  137en-    HQM 4908   1.344   3.521   4.337  0.3625 -0.5970 -1.7782
  137en-    HQM 4909   1.269   3.455   4.556 -0.3425  1.9957 -2.5117
  137en-    HQM 4910   1.309   3.469   4.815 -0.1808  1.5895  1.5811
  137en-    HQM 4911   1.517   3.555   4.908 -2.5231  1.1910  0.7020
  137en-    HQM 4912   1.698   3.630   4.763  1.1070  0.7527 -2.0098
  137en-    HQM 4913   1.781   3.679   4.537 -0.1351 -0.1293  0.0462
  137en-    HQM 4914   1.426   3.592   4.120  0.5435  0.2951 -0.8537
  137en-    CQM 4915   1.624   3.671   4.078 -0.3777 -0.0622  0.5240
  137en-    CQM 4916   1.745   3.706   4.138 -0.1355 -0.3029 -0.2149
  137en-    CQM 4917   1.852   3.757   4.063  0.7956 -0.2217  0.0840
  137en-    CQM 4918   1.841   3.770   3.924 -1.1173  0.2226 -0.3484
  137en-    CQM 4919   1.946   3.831   3.848 -0.0609 -0.1156 -0.1736
  137en-    CQM 4920   1.920   3.855   3.709 -0.0171 -0.7710 -0.6558
  137en-    CQM 4921   1.796   3.816   3.652  0.0933 -0.2498  0.5288
  137en-    CQM 4922   1.696   3.749   3.727 -0.1621 -0.0685  0.2597
  137en-    CQM 4923   1.716   3.736   3.865 -0.1262 -0.2349 -0.2997
  137en-    CQM 4924   1.610   3.672   3.935  0.0472 -0.3271 -0.1372
  137en-    HQM 4925   1.519   3.634   3.891  0.0945  0.9331 -1.3603
  137en-    HQM 4926   1.610   3.720   3.667  1.7150 -1.6501 -1.7435
  137en-    HQM 4927   1.768   3.840   3.550 -2.4977  0.4686  1.3711
  137en-    HQM 4928   2.000   3.904   3.654  1.6161 -3.3107 -0.6078
  137en-    HQM 4929   2.039   3.845   3.902  1.2082  0.6087 -2.4851
  137en-    HQM 4930   1.939   3.794   4.115  0.2641 -1.1388  1.6598
  137en-    CQM 4931   1.766   3.709   4.280 -0.6760  0.2745  0.8250
  137en-    HQM 4932   1.861   3.742   4.322  0.2417 -4.3881  2.7216
  138en-    CQM 4933   1.837   3.311   4.316 -0.3454  0.0482  0.3595
  138en-    CQM 4934   1.738   3.317   4.413 -0.1122  0.0677  0.2278
  138en-    CQM 4935   1.754   3.243   4.536 -0.1006 -0.0327  0.1634
  138en-    CQM 4936   1.652   3.240   4.623 -0.0110  0.3565 -0.1962
  138en-    CQM 4937   1.667   3.180   4.747  0.0104 -0.4902  0.0917
  138en-    CQM 4938   1.789   3.110   4.773 -0.6290 -0.1897 -0.0672
  138en-    CQM 4939   1.891   3.104   4.678  0.0226  0.3011 -0.3979
  138en-    CQM 4940   1.874   3.168   4.557 -0.3732 -0.4115  0.0355
  138en-    CQM 4941   1.978   3.165   4.459 -0.5386 -0.0124  0.0840
  138en-    CQM 4942   1.956   3.235   4.338 -0.1541 -0.3997 -0.1199
  138en-    CQM 4943   1.820   3.378   4.193  0.2459 -0.1793 -0.2080
  138en-    HQM 4944   1.644   3.367   4.396 -0.4461  0.1288  2.1478
  138en-    HQM 4945   1.560   3.290   4.592 -0.0589 -0.8430 -2.0981
  138en-    HQM 4946   1.595   3.204   4.825 -1.3636  0.3329 -1.3936
  138en-    HQM 4947   1.815   3.085   4.876 -0.1026 -0.4193 -0.2542
  138en-    HQM 4948   1.982   3.048   4.696 -1.3585 -1.8849  0.1205
  138en-    HQM 4949   2.068   3.105   4.472  0.1972  0.8190 -1.1163
  138en-    HQM 4950   1.724   3.426   4.185  0.5651  0.2716 -1.5202
  138en-    CQM 4951   1.919   3.373   4.095  0.1584  0.1513  0.2192
  138en-    CQM 4952   2.044   3.301   4.118  0.0326  0.2826 -0.0070
  138en-    CQM 4953   2.149   3.296   4.022 -0.3966  0.8015 -0.0667
  138en-    CQM 4954   2.132   3.348   3.894 -0.0832 -0.0537  0.2913
  138en-    CQM 4955   2.235   3.343   3.800 -0.0603 -0.1066 -0.1459
  138en-    CQM 4956   2.202   3.402   3.670 -0.4553 -0.6490 -0.3941
  138en-    CQM 4957   2.086   3.488   3.645  1.1349  0.0458  0.2183
  138en-    CQM 4958   1.999   3.503   3.753  0.2250 -0.1055  0.0245
  138en-    CQM 4959   2.016   3.428   3.869  1.0265 -0.6157  0.5315
  138en-    CQM 4960   1.916   3.442   3.971 -0.0540  0.0595  0.0202
  138en-    HQM 4961   1.824   3.490   3.940 -0.1990 -0.4886 -0.3909
  138en-    HQM 4962   1.917   3.574   3.740  0.4156  0.0927 -0.1032
  138en-    HQM 4963   2.062   3.542   3.554  1.8736  0.0617  0.0276
  138en-    HQM 4964   2.283   3.389   3.599 -0.0221 -0.5528  0.0799
  138en-    HQM 4965   2.332   3.296   3.815  0.1281  0.3126 -0.0307
  138en-    HQM 4966   2.235   3.233   4.040  1.3085  2.9564 -0.4794
  138en-    CQM 4967   2.050   3.233   4.239 -0.4390 -0.0016 -0.4532
  138en-    HQM 4968   2.139   3.175   4.261 -0.4963  0.7496  1.8159
  139en-    CQM 4969   1.241   0.142   5.700 -0.0607 -1.2199  0.7104
  139en-    CQM 4970   1.147   0.094   5.794 -0.0996 -0.2530  0.7233
  139en-    CQM 4971   1.173   0.076   5.930  0.1278  0.4923 -0.1149
  139en-    CQM 4972   1.077   0.011   6.016 -0.6014 -0.0491  0.1979
  139en-    CQM 4973   1.111  -0.013   6.150  0.0430  0.2585 -0.5146
  139en-    CQM 4974   1.233   0.034   6.202 -0.9927 -0.1773  0.5959
  139en-    CQM 4975   1.324   0.098   6.116 -0.5123  0.1212 -0.5238
  139en-    CQM 4976   1.300   0.116   5.981 -0.0139  0.4161  0.0877
  139en-    CQM 4977   1.393   0.172   5.890 -0.3118 -0.1077  0.4862
  139en-    CQM 4978   1.365   0.188   5.754 -0.4363 -0.3426  0.2457
  139en-    CQM 4979   1.220   0.153   5.559 -0.0579  0.1134 -0.0839
  139en-    HQM 4980   1.050   0.055   5.764 -0.1175  0.9531 -0.8939
  139en-    HQM 4981   0.977  -0.013   5.980 -0.3077 -0.3373 -0.4253
  139en-    HQM 4982   1.038  -0.059   6.217 -0.1771 -0.6093 -1.3358
  139en-    HQM 4983   1.256   0.023   6.307  0.0951 -1.5513  0.2289
  139en-    HQM 4984   1.417   0.129   6.162 -0.0665  0.4250 -1.6175
  139en-    HQM 4985   1.487   0.215   5.922  0.7572  1.4736 -4.3393
  139en-    HQM 4986   1.130   0.116   5.511  1.5981 -3.6167 -0.4975
  139en-    CQM 4987   1.323   0.203   5.477  0.1063 -0.1865  0.0059
  139en-    CQM 4988   1.447   0.249   5.534 -0.2267  0.2341  0.6051
  139en-    CQM 4989   1.541   0.312   5.453 -0.4378  0.0169 -0.1245
  139en-    CQM 4990   1.524   0.317   5.314 -0.0848 -1.0112 -0.1981
  139en-    CQM 4991   1.618   0.371   5.231 -1.0237 -0.8851  0.0490
  139en-    CQM 4992   1.600   0.384   5.091 -0.5473 -0.1106 -0.3979
  139en-    CQM 4993   1.479   0.338   5.036  0.0451 -0.3510 -0.1529
  139en-    CQM 4994   1.380   0.291   5.119  0.4572 -0.0523 -0.3619
  139en-    CQM 4995   1.402   0.278   5.258 -0.3055 -0.4033 -0.2145
  139en-    CQM 4996   1.307   0.213   5.341  0.2934  0.0124 -0.3497
  139en-    HQM 4997   1.213   0.185   5.293  0.5334  0.5481 -1.1413
  139en-    HQM 4998   1.283   0.272   5.072  0.9472  0.1184 -1.4514
  139en-    HQM 4999   1.472   0.354   4.928  0.8270  1.0782 -0.0116
  139en-    HQM 5000   1.684   0.427   5.037  0.9095 -1.2815  0.8834
  139en-    HQM 5001   1.709   0.410   5.275 -1.1166 -0.2922 -0.2646
  139en-    HQM 5002   1.627   0.356   5.503  0.6083 -1.3742 -0.6907
  139en-    CQM 5003   1.462   0.246   5.668 -0.0978  0.4634 -0.0619
  139en-    HQM 5004   1.542   0.299   5.718 -0.8368  0.3808  1.2637
  140en-    CQM 5005   1.873   3.638   5.750 -0.3072 -0.0253 -0.6070
  140en-    CQM 5006   1.779   3.643   5.856  0.6330 -0.3523 -0.7092
  140en-    CQM 5007   1.811   3.565   5.971 -0.0343 -0.1393  0.3997
  140en-    CQM 5008   1.721   3.562   6.076 -0.1482  0.0773  0.2339
  140en-    CQM 5009   1.755   3.487   6.191 -1.0511  0.2826 -0.2129
  140en-    CQM 5010   1.882   3.422   6.207  0.1604 -0.3478 -0.2643
  140en-    CQM 5011   1.974   3.426   6.100 -0.0040  0.1215 -0.1186
  140en-    CQM 5012   1.942   3.503   5.985  0.4418  0.4161  0.4845
  140en-    CQM 5013   2.029   3.508   5.882 -0.3951  0.0707  1.1939
  140en-    CQM 5014   1.995   3.573   5.763  0.2588 -0.0289 -0.3658
  140en-    CQM 5015   1.847   3.707   5.629 -0.0717 -0.7317 -0.1483
  140en-    HQM 5016   1.693   3.708   5.845  0.6437 -0.1736  0.2229
  140en-    HQM 5017   1.627   3.615   6.075  0.9876  2.1619  1.5898
  140en-    HQM 5018   1.678   3.488   6.267  0.2347  0.5259  1.1088
  140en-    HQM 5019   1.906   3.361   6.293 -0.6069 -0.1468  0.1042
  140en-    HQM 5020   2.072   3.379   6.100  0.1777  0.4943 -0.8868
  140en-    HQM 5021   2.126   3.461   5.894  0.2296  1.8737  3.8493
  140en-    HQM 5022   1.756   3.764   5.610  1.6472  1.1523 -3.0349
  140en-    CQM 5023   1.944   3.710   5.523  0.4742 -0.3717 -0.0063
  140en-    CQM 5024   2.065   3.636   5.542  0.2229 -0.3571  0.3796
  140en-    CQM 5025   2.169   3.644   5.445 -0.2176 -1.0798 -0.1182
  140en-    CQM 5026   2.142   3.701   5.317  0.1843 -0.2672  0.2500
  140en-    CQM 5027   2.238   3.690   5.211  0.9074  0.5036 -0.0937
  140en-    CQM 5028   2.209   3.751   5.088 -0.1679  0.3776  0.0022
  140en-    CQM 5029   2.088   3.816   5.067  0.2762  0.0488  0.6082
  140en-    CQM 5030   1.990   3.822   5.166 -0.3789 -0.1736 -0.5921
  140en-    CQM 5031   2.017   3.764   5.294 -0.4172 -0.0496  0.0069
  140en-    CQM 5032   1.922   3.780   5.401  0.2078  0.1555 -0.0016
  140en-    HQM 5033   1.826   3.826   5.379  0.4411  0.5517 -0.2043
  140en-    HQM 5034   1.903   3.886   5.168 -1.0762 -1.1127 -0.5435
  140en-    HQM 5035   2.073   3.869   4.974  3.1333  0.5347  0.3650
  140en-    HQM 5036   2.277   3.737   5.005  0.0069 -1.1071  0.3856
  140en-    HQM 5037   2.325   3.626   5.222  1.0899  0.0340 -3.6771
  140en-    HQM 5038   2.262   3.589   5.452  0.5950  0.0716 -1.6066
  140en-    CQM 5039   2.092   3.580   5.664 -0.1556  0.4073 -0.6271
  140en-    HQM 5040   2.191   3.537   5.671 -0.0292  0.6595 -0.8499
  141en-    CQM 5041   1.495   3.408   0.100  0.1661  0.4787 -0.7386
  141en-    CQM 5042   1.391   3.366   0.188  0.2123 -0.1876 -0.3901
  141en-    CQM 5043   1.416   3.361   0.324  0.1257  0.0609 -0.1122
  141en-    CQM 5044   1.320   3.312   0.407 -0.4852  0.8176  0.2877
  141en-    CQM 5045   1.342   3.303   0.545  0.1150  0.4871  0.0334
  141en-    CQM 5046   1.460   3.343   0.601  0.3769  0.0703  0.3644
  141en-    CQM 5047   1.556   3.412   0.524  0.6635 -0.2058  0.1921
  141en-    CQM 5048   1.542   3.405   0.380 -0.1559 -0.1399 -0.0041
  141en-    CQM 5049   1.642   3.450   0.292 -0.3226 -0.2248  0.0156
  141en-    CQM 5050   1.619   3.457   0.157  0.0478 -0.7554  0.9224
  141en-    CQM 5051   1.471   3.415  -0.040 -0.9130  0.4133 -0.4480
  141en-    HQM 5052   1.298   3.327   0.149  0.7540 -2.0935  0.1887
  141en-    HQM 5053   1.224   3.280   0.367  0.2036 -2.9731  1.3930
  141en-    HQM 5054   1.259   3.267   0.605  1.2799 -0.7874  0.9003
  141en-    HQM 5055   1.467   3.331   0.709  0.2387  0.6622  0.4443
  141en-    HQM 5056   1.656   3.436   0.559  0.4390  2.4127 -0.8287
  141en-    HQM 5057   1.736   3.487   0.331 -0.0377 -0.0994 -0.7787
  141en-    HQM 5058   1.373   3.388  -0.078 -0.3806 -1.2495 -0.6621
  141en-    CQM 5059   1.575   3.465  -0.122 -0.0529  0.0706 -1.0817
  141en-    CQM 5060   1.702   3.501  -0.066 -0.0518  0.8841 -0.4220
  141en-    CQM 5061   1.799   3.549  -0.156 -0.6129  0.0108 -0.3564
  141en-    CQM 5062   1.775   3.557  -0.296  0.1493  0.0567 -0.4321
  141en-    CQM 5063   1.877   3.607  -0.378  0.4818  0.8394 -0.2525
  141en-    CQM 5064   1.853   3.619  -0.517  0.4786 -0.3128 -0.0666
  141en-    CQM 5065   1.735   3.564  -0.570 -0.0173 -0.1665  0.1224
  141en-    CQM 5066   1.631   3.515  -0.488 -0.1445 -0.7495 -0.1539
  141en-    CQM 5067   1.656   3.512  -0.349 -0.0077  0.0134 -0.4538
  141en-    CQM 5068   1.559   3.468  -0.261  0.4398 -0.0653 -0.3888
  141en-    HQM 5069   1.468   3.431  -0.306 -0.0663  1.5215 -0.6704
  141en-    HQM 5070   1.538   3.476  -0.529 -2.2660  3.3069  0.6150
  141en-    HQM 5071   1.723   3.560  -0.678 -2.0529  0.0932  0.3158
  141en-    HQM 5072   1.921   3.677  -0.579 -3.3023  4.1944 -0.3019
  141en-    HQM 5073   1.969   3.642  -0.333 -0.3889  0.7344  1.6783
  141en-    HQM 5074   1.883   3.592  -0.103 -1.7902 -2.3408  3.5970
  141en-    CQM 5075   1.722   3.501   0.074  0.9595  0.7534 -0.1237
  141en-    HQM 5076   1.821   3.535   0.102  1.8551 -0.3575 -1.8612
  142en-    CQM 5077   1.771   3.093   0.119  0.6191  0.4441  0.0104
  142en-    CQM 5078   1.669   3.102   0.217  0.1828 -0.3385  0.3019
  142en-    CQM 5079   1.685   3.033   0.336 -0.2000  0.4122 -0.0531
  142en-    CQM 5080   1.576   3.023   0.423  0.5388  0.9190 -0.7891
  142en-    CQM 5081   1.589   2.952   0.549  0.7624 -0.3877 -0.2107
  142en-    CQM 5082   1.709   2.886   0.582 -0.1836  0.4483  0.6822
  142en-    CQM 5083   1.813   2.891   0.489 -0.4778  0.0269 -0.4233
  142en-    CQM 5084   1.804   2.958   0.362  0.3619 -0.0864 -0.5126
  142en-    CQM 5085   1.905   2.949   0.266 -0.0395  0.8980 -0.6149
  142en-    CQM 5086   1.891   3.017   0.143 -0.0008 -0.0114  0.1179
  142en-    CQM 5087   1.757   3.155   0.000  0.2112 -0.1243 -0.3590
  142en-    HQM 5088   1.575   3.149   0.190  0.8356  0.5549 -0.4658
  142en-    HQM 5089   1.485   3.075   0.394  2.0179  2.2680 -3.1544
  142en-    HQM 5090   1.503   2.941   0.615  1.6513  1.2823  1.2664
  142en-    HQM 5091   1.722   2.823   0.669  2.8499 -0.2429 -0.2080
  142en-    HQM 5092   1.910   2.842   0.498  0.1602  1.0505 -1.5075
  142en-    HQM 5093   1.993   2.891   0.293 -1.1437  0.1136  1.3750
  142en-    HQM 5094   1.669   3.215  -0.022  0.2556 -0.0820 -0.4228
  142en-    CQM 5095   1.859   3.154  -0.095 -0.2601 -0.1626 -1.2305
  142en-    CQM 5096   1.973   3.077  -0.071 -0.0524 -0.5824  0.5379
  142en-    CQM 5097   2.080   3.081  -0.161 -0.6752 -0.6740  0.6124
  142en-    CQM 5098   2.070   3.138  -0.290 -0.1238 -0.1361 -0.2658
  142en-    CQM 5099   2.168   3.130  -0.383  0.2448 -0.0228  0.2940
  142en-    CQM 5100   2.142   3.178  -0.512 -0.0578  0.2965  0.2722
  142en-    CQM 5101   2.026   3.252  -0.532  0.3967  0.4255 -0.3143
  142en-    CQM 5102   1.929   3.266  -0.439 -0.1025 -0.2202  0.2527
  142en-    CQM 5103   1.950   3.205  -0.317 -0.5404 -0.2043 -0.9366
  142en-    CQM 5104   1.849   3.216  -0.221  0.5941  0.4720  0.0238
  142en-    HQM 5105   1.758   3.266  -0.252  1.2814  1.9950  0.4471
  142en-    HQM 5106   1.841   3.326  -0.461  1.3030  2.0441  0.5370
  142en-    HQM 5107   2.020   3.297  -0.631  0.5712  4.7344  1.5088
  142en-    HQM 5108   2.217   3.164  -0.589 -0.6749 -0.0352 -0.2648
  142en-    HQM 5109   2.260   3.080  -0.356  0.9070  1.6708  1.2799
  142en-    HQM 5110   2.176   3.032  -0.145 -1.1288 -1.7299  0.1563
  142en-    CQM 5111   1.990   3.008   0.044 -0.3223  0.0264  0.2482
  142en-    HQM 5112   2.082   2.959   0.074 -0.0161  0.5921  0.2327
  143en-    CQM 5113   1.536   3.727   1.503 -0.0167 -0.3779 -0.3474
  143en-    CQM 5114   1.428   3.680   1.579  0.0745  0.1362 -0.1791
  143en-    CQM 5115   1.453   3.660   1.713 -0.3764 -0.0965 -0.1588
  143en-    CQM 5116   1.355   3.597   1.789 -0.2894 -0.1500  0.0081
  143en-    CQM 5117   1.372   3.575   1.924 -0.2294 -0.1476 -0.2158
  143en-    CQM 5118   1.486   3.626   1.989 -0.4205 -0.1041 -1.0518
  143en-    CQM 5119   1.595   3.682   1.917 -0.1829  0.2063  0.3674
  143en-    CQM 5120   1.576   3.696   1.773 -0.3890 -0.1356  0.1465
  143en-    CQM 5121   1.680   3.749   1.696  0.1488  0.6808 -0.9240
  143en-    CQM 5122   1.662   3.763   1.558 -0.0404  0.1744  0.4591
  143en-    CQM 5123   1.515   3.738   1.366 -0.9218 -0.8085  0.2703
  143en-    HQM 5124   1.331   3.653   1.539  0.5594  0.5804 -1.6953
  143en-    HQM 5125   1.264   3.564   1.740  1.7356 -1.0907 -3.2792
  143en-    HQM 5126   1.282   3.550   1.979  0.5597  0.4974  1.4185
  143en-    HQM 5127   1.499   3.602   2.094 -0.2765 -1.3360 -1.3466
  143en-    HQM 5128   1.690   3.710   1.961 -0.6731  1.3468  0.6974
  143en-    HQM 5129   1.774   3.776   1.744 -1.2268  3.1625  0.4448
  143en-    HQM 5130   1.417   3.720   1.323 -0.8987 -2.7217  0.9377
  143en-    CQM 5131   1.616   3.792   1.285 -0.4646  0.0466 -0.6092
  143en-    CQM 5132   1.741   3.827   1.338 -0.7854 -0.0318  0.2238
  143en-    CQM 5133   1.837   3.883   1.257  0.7899  0.9034  0.0080
  143en-    CQM 5134   1.813   3.896   1.120  0.2125  0.6360  0.4265
  143en-    CQM 5135   1.910   3.944   1.033 -0.5900  0.2626  0.1190
  143en-    CQM 5136   1.890   3.944   0.895  0.3882 -1.4373 -0.4244
  143en-    CQM 5137   1.764   3.898   0.845  0.0132 -0.5205 -0.4475
  143en-    CQM 5138   1.663   3.864   0.931  0.5029  0.3436  0.2933
  143en-    CQM 5139   1.690   3.855   1.070 -0.0710  0.2320  0.3167
  143en-    CQM 5140   1.593   3.808   1.150 -0.4458  0.5927 -0.0846
  143en-    HQM 5141   1.502   3.777   1.100 -0.1530  1.6573 -1.2869
  143en-    HQM 5142   1.563   3.844   0.894  0.7574 -1.7565  0.6723
  143en-    HQM 5143   1.752   3.887   0.737 -0.2906 -1.0396 -0.3609
  143en-    HQM 5144   1.975   3.977   0.836  1.1110  0.8244  1.7988
  143en-    HQM 5145   2.004   3.980   1.075 -0.7091 -0.1914  0.7786
  143en-    HQM 5146   1.937   3.894   1.299  1.6329 -3.0584 -0.7483
  143en-    CQM 5147   1.769   3.803   1.474 -0.5255 -0.1875 -0.2511
  143en-    HQM 5148   1.864   3.840   1.512 -1.6793  1.6125  1.0057
  144en-    CQM 5149   1.821   3.396   1.533  0.2311 -0.6837  0.0522
  144en-    CQM 5150   1.726   3.404   1.639 -0.1584 -0.5937  0.3043
  144en-    CQM 5151   1.744   3.317   1.750 -0.1941 -0.1738  0.0226
  144en-    CQM 5152   1.638   3.305   1.846 -0.0484 -0.0489 -0.2768
  144en-    CQM 5153   1.667   3.224   1.960 -0.3569 -0.6038 -0.2521
  144en-    CQM 5154   1.788   3.155   1.980 -0.5471  0.3225 -0.3122
  144en-    CQM 5155   1.890   3.174   1.883 -0.3091 -0.6108  0.2493
  144en-    CQM 5156   1.870   3.249   1.768  0.6141  0.2548 -0.7237
  144en-    CQM 5157   1.969   3.252   1.670  0.1176  0.5083  0.4239
  144en-    CQM 5158   1.943   3.322   1.553 -0.2103  0.5292 -0.5208
  144en-    CQM 5159   1.791   3.460   1.413  0.7760 -0.4167  0.1009
  144en-    HQM 5160   1.628   3.451   1.631  0.0310 -0.1014  0.8723
  144en-    HQM 5161   1.541   3.353   1.836  0.5670  1.3745  0.4610
  144en-    HQM 5162   1.584   3.206   2.029 -0.3784 -0.9771 -0.3750
  144en-    HQM 5163   1.806   3.089   2.065 -0.6613  0.4745 -0.1697
  144en-    HQM 5164   1.990   3.135   1.896  0.5993  1.8984  1.0318
  144en-    HQM 5165   2.067   3.211   1.690 -0.5923 -0.4811  2.0136
  144en-    HQM 5166   1.692   3.503   1.403  0.0944 -2.3134 -1.7061
  144en-    CQM 5167   1.883   3.451   1.309 -0.1036  1.0146  0.2148
  144en-    CQM 5168   2.005   3.383   1.331  0.2537  0.6924 -0.0365
  144en-    CQM 5169   2.106   3.380   1.228 -0.0330 -0.5525 -0.4627
  144en-    CQM 5170   2.078   3.452   1.112 -1.0507 -0.0341  1.0711
  144en-    CQM 5171   2.186   3.460   1.016  0.3364 -0.2594  0.1066
  144en-    CQM 5172   2.159   3.523   0.891  0.2402  0.3316 -0.2083
  144en-    CQM 5173   2.030   3.583   0.875 -0.2860  0.6087  0.2980
  144en-    CQM 5174   1.931   3.578   0.972  0.0079 -0.3372  0.4161
  144en-    CQM 5175   1.952   3.517   1.091  0.3696  0.0110  0.2238
  144en-    CQM 5176   1.855   3.517   1.191 -0.3266 -0.3885  0.5806
  144en-    HQM 5177   1.760   3.567   1.179  0.7045  1.3452 -0.6388
  144en-    HQM 5178   1.836   3.630   0.969  0.2016  0.2708  3.0449
  144en-    HQM 5179   2.011   3.636   0.781 -0.0527  0.0538 -0.0634
  144en-    HQM 5180   2.229   3.522   0.808  0.4600  1.4089 -0.0377
  144en-    HQM 5181   2.279   3.406   1.032 -0.0649 -1.1406 -0.5147
  144en-    HQM 5182   2.202   3.333   1.249 -0.7102 -2.1522 -0.8891
  144en-    CQM 5183   2.033   3.315   1.447  0.3742 -0.4561  0.2130
  144en-    HQM 5184   2.126   3.259   1.457 -0.1210 -1.0040  1.8869
  145en-    CQM 5185   1.209   0.195   2.881  0.5693 -0.9158 -0.1169
  145en-    CQM 5186   1.112   0.141   2.961  1.2426  0.0379 -0.1083
  145en-    CQM 5187   1.133   0.132   3.100 -0.3237  0.4762  0.3089
  145en-    CQM 5188   1.037   0.075   3.180  0.6359  0.0505  0.2684
  145en-    CQM 5189   1.053   0.057   3.316 -0.4069  0.4015 -0.2430
  145en-    CQM 5190   1.174   0.109   3.381  0.1374  0.0935  0.4220
  145en-    CQM 5191   1.266   0.169   3.293  0.8236 -0.1711 -0.5987
  145en-    CQM 5192   1.255   0.178   3.156  0.1633 -0.8415  0.0506
  145en-    CQM 5193   1.351   0.233   3.079  0.0017  1.3133  0.3797
  145en-    CQM 5194   1.328   0.244   2.942 -0.1065 -0.1442 -0.4212
  145en-    CQM 5195   1.196   0.205   2.741  1.1141 -0.0752 -0.4566
  145en-    HQM 5196   1.023   0.101   2.914  0.0786  1.7415  0.6384
  145en-    HQM 5197   0.950   0.045   3.123  0.2588 -0.0820  0.9092
  145en-    HQM 5198   0.979   0.006   3.377  1.2525 -2.6549 -0.6633
  145en-    HQM 5199   1.185   0.108   3.489  0.5719 -0.8212  0.3695
  145en-    HQM 5200   1.352   0.216   3.341  1.5984  0.8468 -2.9238
  145en-    HQM 5201   1.444   0.266   3.124  1.2883  0.0443 -1.2607
  145en-    HQM 5202   1.112   0.161   2.689 -0.4927  1.4068  0.8520
  145en-    CQM 5203   1.298   0.263   2.665  0.7664 -0.0478 -0.5296
  145en-    CQM 5204   1.418   0.311   2.722  0.6623  0.3665  0.1966
  145en-    CQM 5205   1.526   0.357   2.639  0.2308  0.0832 -0.2073
  145en-    CQM 5206   1.502   0.367   2.499  0.6141 -0.1412 -0.0043
  145en-    CQM 5207   1.595   0.426   2.415  0.1670 -0.8392  0.2709
  145en-    CQM 5208   1.577   0.436   2.280 -0.2486 -0.5040 -0.3568
  145en-    CQM 5209   1.461   0.393   2.222  0.1636  1.0074  0.0893
  145en-    CQM 5210   1.355   0.351   2.301 -0.7723 -0.1158 -0.3136
  145en-    CQM 5211   1.380   0.331   2.440  0.9662  0.6485 -0.3890
  145en-    CQM 5212   1.277   0.278   2.523 -0.9360 -0.1762 -0.3934
  145en-    HQM 5213   1.182   0.250   2.479 -0.0182  0.3280 -2.7936
  145en-    HQM 5214   1.258   0.324   2.259 -1.8482  1.0160  1.3925
  145en-    HQM 5215   1.452   0.399   2.114 -0.6407 -0.1526  0.0768
  145en-    HQM 5216   1.657   0.477   2.219  1.4854 -0.5813  1.8058
  145en-    HQM 5217   1.688   0.461   2.457  0.5261 -2.1347  0.5980
  145en-    HQM 5218   1.617   0.396   2.684  0.8124 -0.1245 -1.1911
  145en-    CQM 5219   1.432   0.296   2.860  0.4604 -0.8759  0.0776
  145en-    HQM 5220   1.524   0.327   2.909  0.4131 -0.9308  0.2011
  146en-    CQM 5221   1.865   3.727   2.905  0.8046  0.0849  0.4782
  146en-    CQM 5222   1.767   3.730   3.006  0.5470 -0.7940  0.4239
  146en-    CQM 5223   1.787   3.666   3.128  0.3214  1.0729 -0.4698
  146en-    CQM 5224   1.694   3.664   3.230 -0.3585 -0.1869 -0.5546
  146en-    CQM 5225   1.708   3.594   3.349 -0.4312 -0.3284 -0.1605
  146en-    CQM 5226   1.832   3.530   3.375 -0.3932 -0.3535 -0.4201
  146en-    CQM 5227   1.935   3.527   3.272  0.3007 -0.4077 -0.4348
  146en-    CQM 5228   1.911   3.595   3.147 -0.9035 -0.2312 -1.2163
  146en-    CQM 5229   2.009   3.589   3.044  0.5764 -0.4873  0.2953
  146en-    CQM 5230   1.987   3.655   2.921 -0.1308  0.0868 -0.3222
  146en-    CQM 5231   1.837   3.791   2.783 -0.2037 -0.4299 -0.0078
  146en-    HQM 5232   1.683   3.793   2.979  1.7813  0.1713 -1.2361
  146en-    HQM 5233   1.601   3.720   3.221  1.4432  3.2412  1.4778
  146en-    HQM 5234   1.633   3.600   3.427  1.4872 -0.7749  1.7965
  146en-    HQM 5235   1.846   3.479   3.469 -3.4186  1.1577  0.9463
  146en-    HQM 5236   2.029   3.473   3.284 -0.2184 -1.3764 -0.6654
  146en-    HQM 5237   2.101   3.535   3.064  0.9185  0.7857  2.3164
  146en-    HQM 5238   1.741   3.836   2.760 -0.6341 -1.8933 -1.1323
  146en-    CQM 5239   1.934   3.781   2.677  0.0715 -0.2067 -0.5286
  146en-    CQM 5240   2.057   3.710   2.697 -0.0631  0.2779 -0.5115
  146en-    CQM 5241   2.149   3.709   2.596 -0.2894 -0.0293  0.3647
  146en-    CQM 5242   2.124   3.766   2.479 -0.0012 -0.4360  0.0585
  146en-    CQM 5243   2.224   3.773   2.385  0.4373  0.3939 -0.0811
  146en-    CQM 5244   2.206   3.836   2.264  0.2886 -0.3987 -0.1036
  146en-    CQM 5245   2.085   3.905   2.237 -0.0012  0.1252  0.4959
  146en-    CQM 5246   1.982   3.907   2.334  0.0195 -0.2900 -0.2783
  146en-    CQM 5247   2.002   3.839   2.454  0.7658 -0.3207 -0.9728
  146en-    CQM 5248   1.916   3.846   2.557  0.0032 -0.8204 -0.2699
  146en-    HQM 5249   1.827   3.904   2.535 -1.0645 -2.9045 -1.6293
  146en-    HQM 5250   1.889   3.958   2.313  0.2052 -1.2793 -3.8551
  146en-    HQM 5251   2.068   3.949   2.139  0.6905 -1.5022 -0.3903
  146en-    HQM 5252   2.293   3.838   2.198  0.3981 -0.6655  0.0285
  146en-    HQM 5253   2.313   3.717   2.409  1.0211  0.7415 -1.4092
  146en-    HQM 5254   2.245   3.658   2.598  0.3392  0.9507 -2.5228
  146en-    CQM 5255   2.088   3.649   2.822 -0.8808 -0.8984 -0.1563
  146en-    HQM 5256   2.180   3.594   2.841 -0.2575  0.8858  2.2793
  147en-    CQM 5257   1.252   0.540   4.305  0.8509 -0.1500 -0.3304
  147en-    CQM 5258   1.141   0.490   4.378 -0.7024 -0.1572 -0.0515
  147en-    CQM 5259   1.157   0.477   4.517  0.0905 -0.7265  0.6092
  147en-    CQM 5260   1.058   0.408   4.589  0.0059 -0.0084  0.8392
  147en-    CQM 5261   1.068   0.389   4.727 -1.1422 -0.5021 -0.1142
  147en-    CQM 5262   1.181   0.435   4.795 -0.8001  0.0779  0.4811
  147en-    CQM 5263   1.284   0.497   4.726 -0.6708  0.2193 -0.2450
  147en-    CQM 5264   1.276   0.510   4.584 -0.4865 -0.3216 -0.8671
  147en-    CQM 5265   1.387   0.547   4.506 -0.6663  0.3984  1.2895
  147en-    CQM 5266   1.376   0.564   4.365  0.2668 -0.4266 -0.9406
  147en-    CQM 5267   1.231   0.548   4.167  0.5157 -0.1951  0.8878
  147en-    HQM 5268   1.058   0.447   4.323 -1.1505 -0.6345  0.9788
  147en-    HQM 5269   0.962   0.380   4.545 -1.3002  1.8103  2.4321
  147en-    HQM 5270   0.987   0.340   4.780 -1.5932  0.2581 -0.1060
  147en-    HQM 5271   1.207   0.415   4.898  0.3330  1.8111  0.5497
  147en-    HQM 5272   1.381   0.511   4.772  0.2989  0.9267 -2.4554
  147en-    HQM 5273   1.485   0.577   4.543 -0.8116  2.2922  0.1897
  147en-    HQM 5274   1.138   0.513   4.122  1.1229  0.2712 -0.7873
  147en-    CQM 5275   1.337   0.589   4.087 -0.1749 -0.1745  0.1622
  147en-    CQM 5276   1.459   0.624   4.146 -0.1512 -0.4215 -0.2741
  147en-    CQM 5277   1.571   0.672   4.070 -0.4371 -0.1560 -0.1882
  147en-    CQM 5278   1.553   0.692   3.935  0.0724 -0.6932 -0.3997
  147en-    CQM 5279   1.655   0.745   3.860  0.3248  0.4533 -0.1026
  147en-    CQM 5280   1.639   0.760   3.724 -0.2245  1.6840  0.3827
  147en-    CQM 5281   1.518   0.733   3.656 -0.0103 -0.8319 -0.2284
  147en-    CQM 5282   1.418   0.685   3.734  0.0167 -0.1628 -0.1011
  147en-    CQM 5283   1.426   0.660   3.874 -0.4149 -0.1364 -0.5416
  147en-    CQM 5284   1.316   0.607   3.951 -0.2146 -0.8536 -0.2116
  147en-    HQM 5285   1.223   0.585   3.900 -1.0459 -0.1805  0.9989
  147en-    HQM 5286   1.320   0.682   3.688  0.0953 -1.1698 -0.2145
  147en-    HQM 5287   1.509   0.746   3.548 -3.0223 -1.2833 -0.0648
  147en-    HQM 5288   1.726   0.790   3.668 -0.5288  2.2901  0.2350
  147en-    HQM 5289   1.745   0.770   3.916 -1.4313 -0.2378  3.2055
  147en-    HQM 5290   1.667   0.687   4.119 -0.2545 -1.0598 -0.2530
  147en-    CQM 5291   1.483   0.599   4.282  1.2036 -0.5406 -0.6860
  147en-    HQM 5292   1.580   0.614   4.327  1.3998 -0.2158 -1.2235
  148en-    CQM 5293   1.538   0.198   4.317  0.0827  0.2117  0.6582
  148en-    CQM 5294   1.439   0.199   4.410  0.2774  0.6314 -0.4882
  148en-    CQM 5295   1.449   0.140   4.538  0.2222  0.5534  0.3313
  148en-    CQM 5296   1.349   0.155   4.633 -0.2568 -0.8230  0.3789
  148en-    CQM 5297   1.366   0.099   4.755  0.0429 -0.9995  0.1021
  148en-    CQM 5298   1.481   0.025   4.782 -0.0433 -0.2006 -0.0917
  148en-    CQM 5299   1.582   0.003   4.684  0.1517  0.1508  0.2384
  148en-    CQM 5300   1.568   0.065   4.563  0.0463  0.2595 -0.3856
  148en-    CQM 5301   1.671   0.062   4.464 -0.7425 -0.2415  0.0470
  148en-    CQM 5302   1.661   0.131   4.340  0.0343  0.0075 -0.1308
  148en-    CQM 5303   1.524   0.267   4.196 -0.7378 -0.0877 -0.2458
  148en-    HQM 5304   1.355   0.266   4.394 -1.9434 -2.2775 -1.5002
  148en-    HQM 5305   1.270   0.225   4.607  1.6047  0.6715 -1.4137
  148en-    HQM 5306   1.288   0.108   4.830 -1.0133  1.1720 -1.2222
  148en-    HQM 5307   1.501  -0.028   4.875 -1.2003  1.0731  0.9053
  148en-    HQM 5308   1.668  -0.058   4.711 -0.6025  0.0856  2.6385
  148en-    HQM 5309   1.761   0.007   4.490 -0.2653  0.6856  0.3590
  148en-    HQM 5310   1.435   0.322   4.167 -0.1590  0.0352 -1.8503
  148en-    CQM 5311   1.620   0.257   4.092 -0.1174  0.4694 -0.0216
  148en-    CQM 5312   1.744   0.196   4.123 -0.0115  0.6326 -0.6193
  148en-    CQM 5313   1.848   0.187   4.023  0.3375  0.1872 -0.1761
  148en-    CQM 5314   1.826   0.244   3.900 -0.4188 -0.6342 -0.0382
  148en-    CQM 5315   1.924   0.252   3.801  0.3661  0.4199  0.0788
  148en-    CQM 5316   1.900   0.308   3.674 -0.3959  0.8528  0.3265
  148en-    CQM 5317   1.777   0.371   3.651  0.0083  0.1575  0.2733
  148en-    CQM 5318   1.681   0.376   3.748  0.4545  0.0681 -0.3263
  148en-    CQM 5319   1.704   0.306   3.869  1.1069 -0.1632 -0.1240
  148en-    CQM 5320   1.602   0.314   3.968 -0.5252 -0.3127  0.8984
  148en-    HQM 5321   1.506   0.356   3.940 -1.6126 -2.5341  1.1255
  148en-    HQM 5322   1.587   0.429   3.740  0.2913  0.0632  1.4354
  148en-    HQM 5323   1.754   0.429   3.562  1.1312  0.5289  0.2155
  148en-    HQM 5324   1.970   0.302   3.592 -0.9355 -0.7209 -0.0342
  148en-    HQM 5325   2.021   0.212   3.828 -0.6555 -0.0667  3.1380
  148en-    HQM 5326   1.936   0.131   4.052 -0.1769  0.4068  1.8508
  148en-    CQM 5327   1.762   0.133   4.242 -0.4260  0.2215  0.7126
  148en-    HQM 5328   1.859   0.089   4.260 -1.5377 -2.7665 -0.3157
  149en-    CQM 5329   1.321   0.892   5.710  0.0208  0.2386  0.2829
  149en-    CQM 5330   1.218   0.844   5.794 -0.3570  0.1041  0.4152
  149en-    CQM 5331   1.240   0.827   5.935 -0.8518 -0.1850  0.4117
  149en-    CQM 5332   1.146   0.768   6.016 -0.1157  0.1252 -0.5319
  149en-    CQM 5333   1.170   0.741   6.154 -0.4589 -0.3910 -0.3261
  149en-    CQM 5334   1.295   0.780   6.210  0.2613 -0.0052 -0.4234
  149en-    CQM 5335   1.390   0.845   6.130  0.0647 -0.2533 -0.5084
  149en-    CQM 5336   1.366   0.861   5.991 -0.4030  0.1519  0.0070
  149en-    CQM 5337   1.463   0.918   5.902  0.3358 -0.2947 -0.5792
  149en-    CQM 5338   1.441   0.937   5.766  0.3078  0.2555 -0.0938
  149en-    CQM 5339   1.299   0.893   5.577 -0.0150 -0.5192 -0.4234
  149en-    HQM 5340   1.124   0.812   5.750 -1.2023  0.8937  1.6147
  149en-    HQM 5341   1.053   0.732   5.974 -0.4502  0.8714 -0.4374
  149en-    HQM 5342   1.106   0.678   6.214  0.6175 -0.1482  1.1109
  149en-    HQM 5343   1.324   0.751   6.311  1.7536 -2.3750 -1.4991
  149en-    HQM 5344   1.483   0.880   6.174 -0.2186 -1.1975  0.8713
  149en-    HQM 5345   1.563   0.945   5.935 -0.1496 -1.0153  1.6328
  149en-    HQM 5346   1.205   0.855   5.537 -1.6710  1.1073  1.8262
  149en-    CQM 5347   1.396   0.947   5.492  0.6986 -0.8792  0.0179
  149en-    CQM 5348   1.512   0.996   5.541  0.1661 -0.1850 -0.3084
  149en-    CQM 5349   1.610   1.042   5.450  0.1170  0.2789 -0.3186
  149en-    CQM 5350   1.583   1.057   5.311 -0.3212 -0.0983 -0.2081
  149en-    CQM 5351   1.678   1.105   5.228  0.1921  0.4151 -0.4144
  149en-    CQM 5352   1.649   1.123   5.094 -0.0660 -0.0819 -0.5853
  149en-    CQM 5353   1.532   1.087   5.043 -0.3007 -0.2233  0.2855
  149en-    CQM 5354   1.441   1.020   5.127  0.2691 -0.3000  0.2339
  149en-    CQM 5355   1.457   1.020   5.264  0.3146  0.1259  0.4878
  149en-    CQM 5356   1.365   0.967   5.355  0.0761 -0.1170 -0.7679
  149en-    HQM 5357   1.265   0.938   5.324  0.1052 -1.2684  0.1761
  149en-    HQM 5358   1.349   0.978   5.087  1.7629  0.2020 -3.9437
  149en-    HQM 5359   1.514   1.102   4.936  0.8458  2.7862  0.4614
  149en-    HQM 5360   1.728   1.174   5.040 -0.2938  1.0477  0.1300
  149en-    HQM 5361   1.773   1.136   5.271  0.4689 -1.1162  0.1290
  149en-    HQM 5362   1.708   1.080   5.477  0.2204  0.4074 -0.8827
  149en-    CQM 5363   1.536   0.985   5.680  0.4136 -0.2759  0.7898
  149en-    HQM 5364   1.630   1.024   5.718  0.0550  0.1334  1.2631
  150en-    CQM 5365   1.610   0.569   5.691 -0.4633  0.4751  0.1980
  150en-    CQM 5366   1.501   0.562   5.788  0.4839 -0.4145 -0.3792
  150en-    CQM 5367   1.527   0.494   5.909  0.3703 -0.4099 -0.7372
  150en-    CQM 5368   1.430   0.480   6.012 -0.4857 -0.2712  0.0281
  150en-    CQM 5369   1.454   0.404   6.127  0.2667  0.1927  0.8605
  150en-    CQM 5370   1.582   0.350   6.150 -0.0111  0.1537 -0.2385
  150en-    CQM 5371   1.686   0.376   6.056  0.7522 -0.1696 -0.2676
  150en-    CQM 5372   1.656   0.435   5.931  0.4839 -0.1424 -0.5035
  150en-    CQM 5373   1.756   0.440   5.837  0.4473 -0.1158  0.8576
  150en-    CQM 5374   1.735   0.504   5.711  0.6267  0.3117  0.6828
  150en-    CQM 5375   1.587   0.632   5.571  0.4595 -0.2648 -0.6419
  150en-    HQM 5376   1.410   0.616   5.764  0.7619  1.9635  3.4234
  150en-    HQM 5377   1.331   0.524   5.995 -1.0646 -1.4612  0.3009
  150en-    HQM 5378   1.371   0.373   6.190 -1.3428 -1.3044 -1.9198
  150en-    HQM 5379   1.596   0.285   6.236 -0.0501 -0.5507 -0.7549
  150en-    HQM 5380   1.787   0.338   6.069  0.9045  0.6683  1.0389
  150en-    HQM 5381   1.856   0.412   5.868  0.4227  0.4913  1.4890
  150en-    HQM 5382   1.491   0.678   5.550  0.3135 -0.3019 -0.0608
  150en-    CQM 5383   1.685   0.629   5.469  0.1903  0.1391 -0.0998
  150en-    CQM 5384   1.800   0.557   5.485 -0.0235  0.2522  0.3156
  150en-    CQM 5385   1.900   0.549   5.386  0.4810 -0.3405  0.4332
  150en-    CQM 5386   1.879   0.613   5.263 -0.1011  0.2116 -0.5322
  150en-    CQM 5387   1.978   0.620   5.162 -0.7800  0.1697 -0.1696
  150en-    CQM 5388   1.952   0.687   5.042 -0.3512  0.3418  0.1148
  150en-    CQM 5389   1.833   0.757   5.023 -0.0613  0.3929  0.1184
  150en-    CQM 5390   1.735   0.757   5.128 -0.4097 -0.1270  0.8783
  150en-    CQM 5391   1.761   0.683   5.242 -0.0173  0.0804 -0.1364
  150en-    CQM 5392   1.661   0.683   5.342  0.5059 -0.1097  0.2072
  150en-    HQM 5393   1.564   0.726   5.321  0.0549 -0.8827  0.6623
  150en-    HQM 5394   1.651   0.824   5.112  0.0356  0.4254  0.8415
  150en-    HQM 5395   1.818   0.819   4.936 -1.6502 -3.2395 -2.3239
  150en-    HQM 5396   2.032   0.693   4.970 -1.3397 -0.5862 -1.0911
  150en-    HQM 5397   2.071   0.566   5.176 -1.2935 -0.5027  0.7642
  150en-    HQM 5398   1.999   0.512   5.408  1.0289 -0.9891 -2.8051
  150en-    CQM 5399   1.833   0.496   5.609 -0.4947 -0.6656 -0.2538
  150en-    HQM 5400   1.926   0.443   5.627 -1.1216 -1.8164 -0.3701
  151en-    CQM 5401   1.848   0.327   0.061  0.2341  0.3960  0.6282
  151en-    CQM 5402   1.744   0.282   0.149 -0.7675 -0.1306  0.9667
  151en-    CQM 5403   1.764   0.274   0.291 -0.6082 -0.0728  0.6030
  151en-    CQM 5404   1.659   0.221   0.375  0.7274  0.2281 -0.6111
  151en-    CQM 5405   1.681   0.225   0.511  0.1324  0.4757 -0.4968
  151en-    CQM 5406   1.809   0.252   0.560 -0.6779 -0.2237  0.0567
  151en-    CQM 5407   1.912   0.301   0.480  0.1213 -0.0088  0.3590
  151en-    CQM 5408   1.891   0.314   0.340 -0.0332 -0.3512 -0.4623
  151en-    CQM 5409   1.985   0.368   0.256 -1.3838 -0.0163  0.1961
  151en-    CQM 5410   1.969   0.369   0.117  0.0014  0.5424  1.1650
  151en-    CQM 5411   1.822   0.341  -0.081 -0.2249 -0.6636  0.9958
  151en-    HQM 5412   1.655   0.240   0.104 -1.0212 -0.8483  2.1103
  151en-    HQM 5413   1.562   0.196   0.334  0.6730  0.5719 -0.6971
  151en-    HQM 5414   1.608   0.186   0.582  0.2096  0.1177 -0.6142
  151en-    HQM 5415   1.825   0.248   0.667  1.5939 -1.8991 -0.3074
  151en-    HQM 5416   2.010   0.329   0.520  0.6109 -0.5786 -0.4185
  151en-    HQM 5417   2.072   0.416   0.300 -2.0883  1.4216  0.0253
  151en-    HQM 5418   1.731   0.298  -0.120 -0.6111 -0.5764  1.7817
  151en-    CQM 5419   1.918   0.395  -0.164  0.1433 -0.3081 -0.7081
  151en-    CQM 5420   2.042   0.436  -0.110 -0.4129 -0.3528  0.0120
  151en-    CQM 5421   2.150   0.481  -0.199  0.9983 -0.5963 -0.2389
  151en-    CQM 5422   2.121   0.508  -0.334 -0.1120 -0.0531  0.2226
  151en-    CQM 5423   2.219   0.562  -0.421 -0.6173  0.3471  0.2040
  151en-    CQM 5424   2.190   0.588  -0.554  0.4436  0.5117  0.0057
  151en-    CQM 5425   2.062   0.547  -0.609  0.1616 -0.1505 -0.1166
  151en-    CQM 5426   1.964   0.487  -0.527 -0.2649  1.0777 -0.3891
  151en-    CQM 5427   1.997   0.465  -0.386 -0.1263  0.2195 -0.4695
  151en-    CQM 5428   1.892   0.417  -0.301 -0.5449  0.2158  0.1274
  151en-    HQM 5429   1.795   0.397  -0.345  0.1571 -0.8128 -0.9893
  151en-    HQM 5430   1.865   0.463  -0.563 -0.2790 -2.0562  1.5576
  151en-    HQM 5431   2.040   0.561  -0.715  1.0823  1.1486 -0.1486
  151en-    HQM 5432   2.262   0.639  -0.618  1.2561  2.7571  2.6292
  151en-    HQM 5433   2.318   0.592  -0.389  0.2459 -0.8330 -1.3032
  151en-    HQM 5434   2.238   0.516  -0.145 -1.6934  2.6475  2.2680
  151en-    CQM 5435   2.068   0.426   0.031 -0.3543  0.0586  0.3511
  151en-    HQM 5436   2.151   0.466   0.089 -2.3141  1.4734  2.2739
  152en-    CQM 5437   2.107   0.003   0.123 -0.3041  0.0780 -0.7981
  152en-    CQM 5438   2.011   0.011   0.225  0.1537 -0.1989 -0.0793
  152en-    CQM 5439   2.034  -0.045   0.353 -0.4877 -0.0716 -0.0070
  152en-    CQM 5440   1.938  -0.043   0.460 -0.4633  0.1416 -0.0909
  152en-    CQM 5441   1.969  -0.110   0.577 -0.0987  0.6462  0.2649
  152en-    CQM 5442   2.089  -0.182   0.599 -0.2001  0.4892 -0.8444
  152en-    CQM 5443   2.185  -0.187   0.496  0.6124 -0.5934  0.8261
  152en-    CQM 5444   2.160  -0.121   0.371  0.7657 -0.0535  0.5939
  152en-    CQM 5445   2.256  -0.116   0.271  0.1717  0.3997  0.1977
  152en-    CQM 5446   2.229  -0.056   0.149 -0.2940 -0.3096  0.3169
  152en-    CQM 5447   2.085   0.065   0.003  0.4808  0.4030  0.1287
  152en-    HQM 5448   1.918   0.063   0.207 -0.4713 -2.1765 -2.9566
  152en-    HQM 5449   1.841   0.003   0.443 -0.1819  1.1064  0.8779
  152en-    HQM 5450   1.890  -0.106   0.653  1.4312  0.1272  1.9161
  152en-    HQM 5451   2.106  -0.242   0.687  0.7824  0.0156 -1.3455
  152en-    HQM 5452   2.278  -0.240   0.509  1.8408  1.3963  0.4500
  152en-    HQM 5453   2.356  -0.155   0.290 -0.1425 -1.5596 -1.9548
  152en-    HQM 5454   1.986   0.106  -0.015  0.9302  1.6404  0.4285
  152en-    CQM 5455   2.170   0.060  -0.107  0.1170  0.1540  0.1995
  152en-    CQM 5456   2.296  -0.006  -0.085 -0.1762 -0.8295  0.1955
  152en-    CQM 5457   2.393  -0.008  -0.185  0.4925  0.3775  0.0174
  152en-    CQM 5458   2.371   0.061  -0.307 -0.0944  0.5501  0.3734
  152en-    CQM 5459   2.476   0.070  -0.406 -0.3975  0.0041  0.5128
  152en-    CQM 5460   2.464   0.137  -0.525 -0.2832 -0.0029  0.3175
  152en-    CQM 5461   2.338   0.199  -0.555 -0.7113  0.2883  0.0161
  152en-    CQM 5462   2.232   0.188  -0.460 -0.5214 -0.1422 -0.1808
  152en-    CQM 5463   2.250   0.126  -0.333  0.6747 -0.5645 -0.1225
  152en-    CQM 5464   2.149   0.120  -0.236  0.0337  1.2362  0.6001
  152en-    HQM 5465   2.053   0.160  -0.267 -1.6482 -1.2183  2.4969
  152en-    HQM 5466   2.137   0.234  -0.482  0.7899  2.9325  0.3181
  152en-    HQM 5467   2.316   0.240  -0.653  0.2729 -1.1345 -0.8141
  152en-    HQM 5468   2.542   0.137  -0.600 -1.0423  1.4138 -0.4915
  152en-    HQM 5469   2.572   0.022  -0.388 -0.7008 -0.6172  0.4762
  152en-    HQM 5470   2.494  -0.042  -0.165  1.0001  0.9392 -1.5212
  152en-    CQM 5471   2.319  -0.070   0.039  0.6438 -0.1796 -0.1043
  152en-    HQM 5472   2.416  -0.117   0.053  0.2126 -0.8244  0.8017
  153en-    CQM 5473   1.885   0.636   1.499 -0.6365  0.3437  0.7909
  153en-    CQM 5474   1.787   0.580   1.589  0.5094  0.8006 -0.8896
  153en-    CQM 5475   1.810   0.568   1.728 -0.5395 -0.0375 -0.0296
  153en-    CQM 5476   1.710   0.513   1.806 -0.1327  0.3054 -1.1656
  153en-    CQM 5477   1.741   0.492   1.941 -0.6481  0.2883  0.3484
  153en-    CQM 5478   1.863   0.545   1.993 -0.3275  0.5904 -0.5304
  153en-    CQM 5479   1.965   0.593   1.901  0.9217  0.4369 -0.1254
  153en-    CQM 5480   1.937   0.607   1.769 -0.0038 -0.3402 -0.3251
  153en-    CQM 5481   2.033   0.660   1.681  0.1552  0.3802 -0.6123
  153en-    CQM 5482   2.006   0.680   1.549  0.7929  0.5608 -0.1571
  153en-    CQM 5483   1.862   0.654   1.357 -1.1670  0.9259  0.0483
  153en-    HQM 5484   1.693   0.562   1.538  0.3426  2.1703 -1.0814
  153en-    HQM 5485   1.616   0.479   1.762 -1.0176  2.3730 -0.9055
  153en-    HQM 5486   1.670   0.443   2.008 -1.7878  0.8848 -0.4055
  153en-    HQM 5487   1.884   0.547   2.099 -0.8629  2.2943 -0.4405
  153en-    HQM 5488   2.058   0.626   1.945  0.9894 -0.0289  0.0766
  153en-    HQM 5489   2.130   0.691   1.720  1.3585 -0.8235 -2.5675
  153en-    HQM 5490   1.776   0.603   1.314 -0.4666 -0.8163  0.6588
  153en-    CQM 5491   1.967   0.705   1.275 -0.4577  0.0041  0.1482
  153en-    CQM 5492   2.092   0.742   1.330 -0.6453  0.5263 -0.6872
  153en-    CQM 5493   2.195   0.786   1.252  0.1376  0.3388  0.2177
  153en-    CQM 5494   2.174   0.791   1.114 -0.5059  0.5334  1.6077
  153en-    CQM 5495   2.270   0.845   1.026 -0.0282  0.3588  0.0607
  153en-    CQM 5496   2.251   0.855   0.882  0.3474 -0.9362  0.3646
  153en-    CQM 5497   2.132   0.812   0.824 -0.2624  0.3724  0.4535
  153en-    CQM 5498   2.029   0.773   0.914 -0.2363 -0.2125  0.2746
  153en-    CQM 5499   2.053   0.752   1.053 -0.3015  0.6270 -0.2944
  153en-    CQM 5500   1.943   0.714   1.137  0.2194 -0.1201 -0.0889
  153en-    HQM 5501   1.853   0.671   1.095 -0.0835 -1.2761  1.6616
  153en-    HQM 5502   1.929   0.746   0.882 -0.5397  0.1972  0.8808
  153en-    HQM 5503   2.114   0.818   0.717 -1.7101  1.2394  0.7459
  153en-    HQM 5504   2.331   0.901   0.826 -0.7163 -0.0302 -0.4345
  153en-    HQM 5505   2.366   0.880   1.063  0.8387 -0.6007 -1.2242
  153en-    HQM 5506   2.279   0.833   1.302  0.3676 -0.6091  0.7284
  153en-    CQM 5507   2.112   0.732   1.472  0.3178  0.1625 -0.1518
  153en-    HQM 5508   2.205   0.769   1.514 -0.3231  1.7928 -0.1108
  154en-    CQM 5509   2.154   0.303   1.503  0.0780  1.4304  0.6709
  154en-    CQM 5510   2.052   0.305   1.602  0.1292  0.1167  0.7261
  154en-    CQM 5511   2.075   0.232   1.724  0.5512  0.1974  0.1009
  154en-    CQM 5512   1.976   0.212   1.819 -0.0220 -0.5751  0.0647
  154en-    CQM 5513   2.000   0.135   1.934 -0.1221  0.0997  0.2499
  154en-    CQM 5514   2.131   0.092   1.964  0.1218  0.0743  0.6300
  154en-    CQM 5515   2.229   0.112   1.871 -0.5092  0.3582  0.0490
  154en-    CQM 5516   2.200   0.170   1.746 -0.4411 -0.0458  0.5157
  154en-    CQM 5517   2.299   0.171   1.650 -0.3513 -0.7446  0.9391
  154en-    CQM 5518   2.278   0.239   1.529  0.5751  0.0937  0.6429
  154en-    CQM 5519   2.139   0.369   1.379 -0.7691 -0.9257  0.6159
  154en-    HQM 5520   1.956   0.353   1.582  0.7737  0.6776 -1.0672
  154en-    HQM 5521   1.878   0.252   1.794 -0.0113 -1.0317 -0.7309
  154en-    HQM 5522   1.916   0.130   2.002 -1.9358  2.7803 -1.6780
  154en-    HQM 5523   2.148   0.038   2.056 -1.3562 -0.4787  0.5763
  154en-    HQM 5524   2.331   0.084   1.891  0.2455  1.4788 -2.0753
  154en-    HQM 5525   2.394   0.120   1.665  1.3515  1.9411 -0.2987
  154en-    HQM 5526   2.047   0.423   1.359 -0.5242 -1.1387 -1.0764
  154en-    CQM 5527   2.245   0.380   1.289  0.0963 -0.1871 -0.5339
  154en-    CQM 5528   2.369   0.312   1.316 -0.2540  0.1015  0.1214
  154en-    CQM 5529   2.473   0.319   1.222  0.2074 -0.8342 -0.7817
  154en-    CQM 5530   2.451   0.385   1.101  0.1451 -0.6966  0.3993
  154en-    CQM 5531   2.554   0.397   1.004  1.1073  0.5151 -0.4045
  154en-    CQM 5532   2.526   0.443   0.874 -0.5093 -0.0769  0.3614
  154en-    CQM 5533   2.404   0.496   0.846  0.7661 -0.5999 -0.3851
  154en-    CQM 5534   2.301   0.497   0.943  0.2944  0.6965 -0.4300
  154en-    CQM 5535   2.328   0.446   1.070 -0.5290  0.6142  0.6142
  154en-    CQM 5536   2.228   0.449   1.165  0.6351 -0.2745 -0.0105
  154en-    HQM 5537   2.133   0.497   1.146  0.6880 -0.3643 -0.5237
  154en-    HQM 5538   2.206   0.538   0.912  0.9159  0.9127 -2.1195
  154en-    HQM 5539   2.397   0.543   0.748 -0.7043 -0.6561 -0.3243
  154en-    HQM 5540   2.606   0.439   0.800 -1.7473  0.1294 -0.9948
  154en-    HQM 5541   2.647   0.346   1.028 -0.1234 -1.1925  0.9111
  154en-    HQM 5542   2.567   0.265   1.234  1.3818  1.1493 -0.7489
  154en-    CQM 5543   2.380   0.240   1.434  0.6174  0.5915 -0.1920
  154en-    HQM 5544   2.476   0.189   1.445 -0.5109 -1.4271  0.6064
  155en-    CQM 5545   1.928   0.962   2.928 -0.2245  0.3921 -0.0610
  155en-    CQM 5546   1.828   0.913   3.012  0.2857  0.4783  0.1495
  155en-    CQM 5547   1.851   0.895   3.152  0.0981 -0.5093 -0.0385
  155en-    CQM 5548   1.745   0.847   3.233  0.7541 -0.2825  0.5235
  155en-    CQM 5549   1.774   0.843   3.371  0.1982  0.0333 -0.0200
  155en-    CQM 5550   1.892   0.890   3.430  0.5461  0.3824  0.2848
  155en-    CQM 5551   1.999   0.938   3.351 -0.1989  0.2027  0.1626
  155en-    CQM 5552   1.971   0.945   3.211 -0.0325 -0.6517 -0.0347
  155en-    CQM 5553   2.067   1.002   3.122  0.1552  0.2390  0.6172
  155en-    CQM 5554   2.049   1.003   2.980  0.4943  1.1705 -0.3353
  155en-    CQM 5555   1.908   0.980   2.793  0.1473 -0.3538 -0.3092
  155en-    HQM 5556   1.732   0.884   2.970 -0.5278  1.2854  1.4028
  155en-    HQM 5557   1.647   0.825   3.191  1.1563  2.8483 -2.2953
  155en-    HQM 5558   1.693   0.827   3.442  0.5428 -0.6767  0.2128
  155en-    HQM 5559   1.904   0.885   3.538  1.4974 -0.8726  0.1378
  155en-    HQM 5560   2.095   0.974   3.387 -0.2315 -0.3120  0.7560
  155en-    HQM 5561   2.160   1.034   3.169  0.8600 -1.3747  0.3515
  155en-    HQM 5562   1.808   0.959   2.757 -0.0696 -0.4648  0.3585
  155en-    CQM 5563   2.013   1.028   2.706 -0.7344 -0.4894  0.2546
  155en-    CQM 5564   2.140   1.075   2.761 -0.4071 -1.0511 -0.1344
  155en-    CQM 5565   2.243   1.123   2.680 -0.5428  0.7867 -0.1245
  155en-    CQM 5566   2.225   1.133   2.542 -0.1241 -0.7885 -0.4642
  155en-    CQM 5567   2.326   1.184   2.457 -0.4369 -0.4873  0.3924
  155en-    CQM 5568   2.313   1.187   2.314  0.5712 -0.8308  0.3543
  155en-    CQM 5569   2.194   1.130   2.258  0.3857  0.8121 -0.3892
  155en-    CQM 5570   2.092   1.082   2.345  0.1205 -0.4897  0.0796
  155en-    CQM 5571   2.101   1.089   2.486  0.4745  0.2895  0.0549
  155en-    CQM 5572   1.998   1.039   2.566 -0.2411 -0.1089  0.0071
  155en-    HQM 5573   1.903   1.013   2.520  0.3436  0.5439 -1.5986
  155en-    HQM 5574   1.999   1.046   2.302 -1.4618  0.8124  2.3791
  155en-    HQM 5575   2.175   1.129   2.151 -2.4821  0.5035  0.0816
  155en-    HQM 5576   2.387   1.238   2.252  0.0041  0.4706  0.7363
  155en-    HQM 5577   2.416   1.225   2.502 -0.9820  1.1345  0.0635
  155en-    HQM 5578   2.337   1.168   2.710 -1.1824  1.6933  0.5603
  155en-    CQM 5579   2.153   1.061   2.903 -0.0785  0.0124  0.2799
  155en-    HQM 5580   2.238   1.107   2.952 -1.1826  3.1295 -0.6364
  156en-    CQM 5581   2.181   0.658   2.912  0.2581 -0.2850 -0.7300
  156en-    CQM 5582   2.074   0.649   3.003 -0.2085  0.0386  0.9719
  156en-    CQM 5583   2.095   0.584   3.126 -0.8313 -0.1268  0.1195
  156en-    CQM 5584   1.989   0.588   3.220 -0.4593  0.3971 -0.1052
  156en-    CQM 5585   2.005   0.522   3.344  0.2485 -0.3911 -0.0785
  156en-    CQM 5586   2.124   0.454   3.367 -0.4812  0.2569 -0.9302
  156en-    CQM 5587   2.225   0.434   3.269 -0.1070 -0.5242 -0.4262
  156en-    CQM 5588   2.209   0.511   3.151  0.1948 -0.5050 -0.4544
  156en-    CQM 5589   2.312   0.507   3.058 -0.4144 -0.1634 -0.0869
  156en-    CQM 5590   2.298   0.583   2.940 -0.4849 -0.3812 -0.5604
  156en-    CQM 5591   2.167   0.725   2.786  0.5815 -0.0329  0.2027
  156en-    HQM 5592   1.986   0.710   2.982 -1.3863 -1.8840  0.2033
  156en-    HQM 5593   1.891   0.628   3.198 -1.1343 -0.0665  1.9459
  156en-    HQM 5594   1.930   0.516   3.423 -0.5532  0.8957 -0.7235
  156en-    HQM 5595   2.137   0.402   3.462  0.2537 -1.9139 -2.1836
  156en-    HQM 5596   2.315   0.377   3.291  0.6161  1.3749  1.8089
  156en-    HQM 5597   2.404   0.451   3.070  0.1294  0.4202 -1.3985
  156en-    HQM 5598   2.073   0.775   2.764  1.3785  0.9199 -1.0930
  156en-    CQM 5599   2.270   0.712   2.695  0.1547 -0.4681  0.1374
  156en-    CQM 5600   2.387   0.643   2.728  0.9685 -0.6100  0.0525
  156en-    CQM 5601   2.487   0.623   2.631  0.5213 -0.9394  0.1545
  156en-    CQM 5602   2.480   0.686   2.507 -0.1914  0.1251  0.5373
  156en-    CQM 5603   2.582   0.670   2.414 -0.1842 -0.3665 -0.7749
  156en-    CQM 5604   2.569   0.718   2.285 -0.2027  0.2204  0.3049
  156en-    CQM 5605   2.461   0.794   2.257  0.1489 -0.3634 -0.4768
  156en-    CQM 5606   2.357   0.821   2.347 -0.2512  0.3961  0.3036
  156en-    CQM 5607   2.364   0.760   2.474 -0.5001 -0.1777 -0.1861
  156en-    CQM 5608   2.258   0.773   2.566 -0.1811 -0.1628  0.2683
  156en-    HQM 5609   2.180   0.847   2.547 -0.2915 -0.0908  0.9709
  156en-    HQM 5610   2.273   0.888   2.332  0.9229  1.2764 -2.8262
  156en-    HQM 5611   2.454   0.847   2.162 -1.1525 -0.8096 -0.6380
  156en-    HQM 5612   2.648   0.702   2.213  2.0359  0.6737  2.5705
  156en-    HQM 5613   2.669   0.612   2.445  0.2673  0.7436  0.0818
  156en-    HQM 5614   2.581   0.569   2.642  0.2955 -1.8722 -2.1117
  156en-    CQM 5615   2.403   0.575   2.848 -0.0850  0.1481 -0.2080
  156en-    HQM 5616   2.487   0.510   2.872 -0.4993  1.2795  4.9716
  157en-    CQM 5617   1.958   1.315   4.300  0.1088  0.2465 -0.7336
  157en-    CQM 5618   1.854   1.263   4.374 -0.4392  0.3465  0.4005
  157en-    CQM 5619   1.876   1.244   4.511  0.5006 -0.3252  0.0002
  157en-    CQM 5620   1.772   1.189   4.592 -0.5017  0.2775 -0.6629
  157en-    CQM 5621   1.792   1.170   4.732 -0.4880 -0.7957  0.6400
  157en-    CQM 5622   1.908   1.213   4.797 -0.4917  0.2826 -0.5197
  157en-    CQM 5623   2.009   1.271   4.718  0.6380 -0.2665 -0.2343
  157en-    CQM 5624   1.991   1.293   4.580  0.1449  0.5319  0.9129
  157en-    CQM 5625   2.089   1.350   4.500 -0.4694 -0.5458 -0.1001
  157en-    CQM 5626   2.075   1.357   4.362  0.0097 -0.1328 -0.1350
  157en-    CQM 5627   1.943   1.318   4.155  0.0160 -0.2951 -0.3466
  157en-    HQM 5628   1.768   1.226   4.319 -0.5988 -1.1368  1.5865
  157en-    HQM 5629   1.681   1.147   4.551 -0.8094  0.8620 -0.5935
  157en-    HQM 5630   1.707   1.116   4.773 -1.7662  1.6928  1.3552
  157en-    HQM 5631   1.920   1.200   4.904  1.2427  1.4270 -0.5544
  157en-    HQM 5632   2.092   1.310   4.776 -0.2524  0.7666  0.3672
  157en-    HQM 5633   2.182   1.385   4.543 -0.2836  1.1464 -1.7604
  157en-    HQM 5634   1.861   1.259   4.115 -0.5231 -0.9742  1.6863
  157en-    CQM 5635   2.048   1.374   4.077  0.0464  0.4135  0.1991
  157en-    CQM 5636   2.167   1.417   4.140 -0.3689 -0.1119 -0.4979
  157en-    CQM 5637   2.276   1.469   4.060  0.4504  0.0048 -0.7344
  157en-    CQM 5638   2.261   1.494   3.923  0.1369  0.0713 -0.0230
  157en-    CQM 5639   2.373   1.535   3.840  0.0110  0.1880 -0.9316
  157en-    CQM 5640   2.349   1.560   3.700 -0.0989 -0.6571  0.2161
  157en-    CQM 5641   2.219   1.530   3.647  0.4246 -0.5380 -0.6481
  157en-    CQM 5642   2.114   1.484   3.733 -0.3536 -0.4800 -0.6414
  157en-    CQM 5643   2.135   1.460   3.866 -0.2490  0.0929 -0.0220
  157en-    CQM 5644   2.035   1.393   3.943 -0.0471  0.0820  0.0296
  157en-    HQM 5645   1.940   1.367   3.895 -0.2991  1.6664 -0.3708
  157en-    HQM 5646   2.024   1.454   3.680 -0.0276  0.6080 -1.8471
  157en-    HQM 5647   2.191   1.550   3.544  0.2948  0.9415 -0.3313
  157en-    HQM 5648   2.432   1.593   3.638 -2.1908  0.3707 -2.1318
  157en-    HQM 5649   2.467   1.568   3.883 -0.5646 -0.3703  0.7750
  157en-    HQM 5650   2.374   1.484   4.104  0.5861 -0.5856 -0.8358
  157en-    CQM 5651   2.181   1.405   4.280 -0.2873  0.1378  0.0656
  157en-    HQM 5652   2.273   1.431   4.331 -1.1806  1.9280  0.7872
  158en-    CQM 5653   2.257   0.981   4.280 -1.4388  0.0416 -0.3397
  158en-    CQM 5654   2.158   0.990   4.378  0.5027 -0.1116  0.1287
  158en-    CQM 5655   2.181   0.934   4.501 -0.4553  0.4527  0.4062
  158en-    CQM 5656   2.082   0.945   4.602  0.0185  0.5103  0.0559
  158en-    CQM 5657   2.102   0.889   4.733 -0.2255 -0.7524  0.7375
  158en-    CQM 5658   2.226   0.825   4.758  0.2889 -0.3338 -0.4553
  158en-    CQM 5659   2.322   0.810   4.652  0.0350  0.1384 -0.4536
  158en-    CQM 5660   2.305   0.863   4.526  0.2205  0.1008  0.1234
  158en-    CQM 5661   2.401   0.855   4.430 -0.2566  0.2748 -0.1137
  158en-    CQM 5662   2.380   0.914   4.305 -0.0121  0.3152 -0.1766
  158en-    CQM 5663   2.236   1.037   4.156 -0.0542 -0.3230 -0.3318
  158en-    HQM 5664   2.075   1.057   4.360 -0.0037 -0.4625  1.1719
  158en-    HQM 5665   1.994   1.002   4.573 -0.4784 -0.9753 -1.4337
  158en-    HQM 5666   2.026   0.898   4.810 -0.3252 -0.2727  0.5830
  158en-    HQM 5667   2.239   0.792   4.860 -0.0033  0.6209 -0.1116
  158en-    HQM 5668   2.421   0.768   4.670 -0.5732 -0.1991  2.3597
  158en-    HQM 5669   2.502   0.823   4.453 -0.2983  1.1884  1.3990
  158en-    HQM 5670   2.141   1.089   4.142 -0.9445 -1.1289  2.4232
  158en-    CQM 5671   2.330   1.042   4.055 -0.7924  0.6187  0.3017
  158en-    CQM 5672   2.455   0.985   4.086 -0.0886 -0.3488 -0.2130
  158en-    CQM 5673   2.560   0.990   3.988  0.3028 -0.0725 -0.1873
  158en-    CQM 5674   2.536   1.053   3.864 -1.1191  0.1781 -0.0494
  158en-    CQM 5675   2.635   1.046   3.765 -0.0097  0.0476  0.3058
  158en-    CQM 5676   2.635   1.125   3.655  0.4874  0.6031 -0.3252
  158en-    CQM 5677   2.518   1.203   3.637 -0.3241 -0.5981  0.0234
  158en-    CQM 5678   2.407   1.194   3.723  0.1218  0.0452  0.4371
  158en-    CQM 5679   2.419   1.126   3.848 -0.1460  0.2935  0.7154
  158en-    CQM 5680   2.316   1.116   3.944 -0.3112 -0.3869  0.2030
  158en-    HQM 5681   2.226   1.174   3.926 -0.4517 -0.7431 -0.2567
  158en-    HQM 5682   2.316   1.250   3.704  0.3825  0.6270  0.9052
  158en-    HQM 5683   2.509   1.257   3.544  0.5513  1.1868  0.9590
  158en-    HQM 5684   2.715   1.120   3.581  0.8687 -1.3106  0.1718
  158en-    HQM 5685   2.723   0.985   3.783 -0.3458  0.1565  2.4752
  158en-    HQM 5686   2.654   0.941   4.010  0.2556 -0.1559 -0.1708
  158en-    CQM 5687   2.481   0.922   4.208 -0.4801 -0.3729 -0.3073
  158en-    HQM 5688   2.583   0.886   4.223 -0.8119 -0.7741  1.0702
  159en-    CQM 5689   2.045   1.681   5.654 -0.3619  0.8000 -0.2161
  159en-    CQM 5690   1.945   1.622   5.737  0.6995  0.2605  0.1471
  159en-    CQM 5691   1.964   1.610   5.873  0.3620 -0.0090 -0.1569
  159en-    CQM 5692   1.862   1.566   5.960  0.0356  0.3378 -0.3313
  159en-    CQM 5693   1.882   1.553   6.099  0.3563 -0.4396  0.0434
  159en-    CQM 5694   2.004   1.596   6.157 -0.1532  0.0875 -0.0824
  159en-    CQM 5695   2.107   1.642   6.072  0.0138  0.6042 -0.7271
  159en-    CQM 5696   2.089   1.646   5.931  0.0236 -0.2386  0.4925
  159en-    CQM 5697   2.187   1.701   5.853 -0.6192  0.1417 -0.4813
  159en-    CQM 5698   2.170   1.711   5.715 -0.3716 -0.2203 -0.0675
  159en-    CQM 5699   2.016   1.699   5.518  0.3171  0.2299  0.3678
  159en-    HQM 5700   1.844   1.595   5.708 -0.0234  1.5835  1.3754
  159en-    HQM 5701   1.762   1.549   5.920 -1.0806  1.9510  1.6785
  159en-    HQM 5702   1.807   1.507   6.162  0.2553  0.2799  0.4603
  159en-    HQM 5703   2.009   1.585   6.265 -2.0802 -0.5758 -0.0400
  159en-    HQM 5704   2.201   1.682   6.108 -0.1711 -0.2203  0.6889
  159en-    HQM 5705   2.277   1.728   5.906 -1.3274  1.7726 -0.0752
  159en-    HQM 5706   1.926   1.667   5.466 -0.8738  2.3769  1.0260
  159en-    CQM 5707   2.121   1.747   5.442  0.5162  0.6364 -0.0370
  159en-    CQM 5708   2.250   1.783   5.496  0.0481 -0.1113  1.1452
  159en-    CQM 5709   2.355   1.833   5.416  0.5296 -0.4005  0.4817
  159en-    CQM 5710   2.331   1.854   5.282  0.2915  0.1011 -0.3986
  159en-    CQM 5711   2.433   1.897   5.195  0.4107  0.6027  0.0410
  159en-    CQM 5712   2.416   1.901   5.056  0.3148 -0.2919 -0.5283
  159en-    CQM 5713   2.298   1.862   5.002  0.3429 -0.2275 -0.7201
  159en-    CQM 5714   2.187   1.823   5.090 -0.4743 -0.0322 -0.4572
  159en-    CQM 5715   2.206   1.816   5.224  0.5312 -0.2116 -0.3733
  159en-    CQM 5716   2.103   1.755   5.305 -0.5212 -0.1605  0.2780
  159en-    HQM 5717   2.001   1.738   5.270 -0.3435  0.6740 -0.6560
  159en-    HQM 5718   2.096   1.777   5.052 -0.4959 -2.2778  2.0969
  159en-    HQM 5719   2.284   1.866   4.894 -1.0530  0.8078 -0.5219
  159en-    HQM 5720   2.500   1.936   4.997 -0.1522 -1.6620 -2.0669
  159en-    HQM 5721   2.521   1.943   5.240  0.8352  0.7946 -0.9543
  159en-    HQM 5722   2.457   1.854   5.450  0.7699 -1.9239  0.7709
  159en-    CQM 5723   2.269   1.765   5.632 -0.2905 -0.8706  0.4108
  159en-    HQM 5724   2.361   1.794   5.682 -0.0450 -1.3547  0.2432
  160en-    CQM 5725   2.285   1.321   5.740  0.0132 -0.3204 -0.0938
  160en-    CQM 5726   2.182   1.317   5.841  0.2806 -0.1483  1.0473
  160en-    CQM 5727   2.205   1.235   5.958 -0.3011  0.1923 -0.0438
  160en-    CQM 5728   2.111   1.234   6.056  0.5642  0.1147  0.2888
  160en-    CQM 5729   2.136   1.178   6.182  0.0479 -0.0287  0.1774
  160en-    CQM 5730   2.263   1.123   6.208 -0.4659 -0.0472 -0.0932
  160en-    CQM 5731   2.360   1.109   6.104  0.0388 -0.0880 -1.4340
  160en-    CQM 5732   2.333   1.177   5.981 -0.2181 -0.2995  0.2348
  160en-    CQM 5733   2.433   1.186   5.886  0.2803  0.5956  0.6512
  160en-    CQM 5734   2.407   1.258   5.766  0.1166 -0.2237  0.4917
  160en-    CQM 5735   2.260   1.385   5.619  0.7300  0.2879 -0.0908
  160en-    HQM 5736   2.086   1.365   5.829  0.1693 -0.7598 -0.5636
  160en-    HQM 5737   2.015   1.283   6.045  0.8508  0.5983 -0.0965
  160en-    HQM 5738   2.057   1.183   6.256 -0.4128  0.5616 -0.3535
  160en-    HQM 5739   2.275   1.077   6.306 -1.2326 -0.2808 -0.1029
  160en-    HQM 5740   2.449   1.049   6.117 -0.8820 -1.5072 -1.5528
  160en-    HQM 5741   2.526   1.130   5.889 -0.5501 -0.8109  0.5911
  160en-    HQM 5742   2.164   1.436   5.618 -1.6527 -3.9910  0.1639
  160en-    CQM 5743   2.359   1.391   5.520  1.1292 -0.4809 -0.3076
  160en-    CQM 5744   2.487   1.334   5.543  0.1236 -0.4263 -0.7190
  160en-    CQM 5745   2.579   1.329   5.442 -0.4085 -0.3292  0.0010
  160en-    CQM 5746   2.556   1.382   5.315 -0.5235 -0.5814 -0.3131
  160en-    CQM 5747   2.655   1.393   5.214 -0.3006  0.4114 -0.3327
  160en-    CQM 5748   2.637   1.460   5.094 -0.1090 -0.1099 -0.5475
  160en-    CQM 5749   2.516   1.525   5.075  0.3632  0.6007 -0.2032
  160en-    CQM 5750   2.414   1.511   5.169 -0.4179  0.1198 -0.0845
  160en-    CQM 5751   2.429   1.435   5.290 -0.4873  0.2389  0.0144
  160en-    CQM 5752   2.329   1.443   5.393 -0.5035 -0.0236 -0.1858
  160en-    HQM 5753   2.233   1.487   5.371  0.2303  0.6892 -2.0591
  160en-    HQM 5754   2.325   1.570   5.146 -0.4515 -0.7233 -2.3009
  160en-    HQM 5755   2.512   1.586   4.986 -0.7429  0.4167 -0.2772
  160en-    HQM 5756   2.717   1.479   5.024 -0.1830  0.3055 -0.5210
  160en-    HQM 5757   2.751   1.344   5.223 -0.4960  0.0335 -0.3072
  160en-    HQM 5758   2.682   1.300   5.463  0.6708  2.7594 -0.7167
  160en-    CQM 5759   2.505   1.265   5.671  0.2524  0.2832  0.5641
  160en-    HQM 5760   2.605   1.227   5.692 -0.2152  0.2921  2.9225
  161en-    CQM 5761   1.899   1.118   0.095  0.4337 -0.5585  0.8873
  161en-    CQM 5762   1.799   1.060   0.176 -0.0909  0.1210  0.3195
  161en-    CQM 5763   1.827   1.039   0.309 -0.5264 -0.3743 -0.9101
  161en-    CQM 5764   1.728   0.978   0.389  0.2298 -1.2350 -0.4562
  161en-    CQM 5765   1.754   0.941   0.528 -0.0300 -0.5754 -0.2121
  161en-    CQM 5766   1.879   0.981   0.581  0.1770  0.4696  0.0068
  161en-    CQM 5767   1.971   1.053   0.502  0.5258  0.1805 -0.3943
  161en-    CQM 5768   1.947   1.082   0.367 -0.3452  0.1162  0.3057
  161en-    CQM 5769   2.046   1.150   0.287  0.6688  0.6081 -0.5882
  161en-    CQM 5770   2.019   1.160   0.149 -0.2804  0.6378 -0.3859
  161en-    CQM 5771   1.869   1.133  -0.040  0.0751 -0.2784 -0.4902
  161en-    HQM 5772   1.706   1.028   0.130  0.9032 -0.2852 -1.4504
  161en-    HQM 5773   1.634   0.950   0.343  0.7026 -2.2420 -0.8158
  161en-    HQM 5774   1.690   0.882   0.593 -1.4683  1.6687  0.4798
  161en-    HQM 5775   1.902   0.956   0.684 -2.6552 -1.6945  0.1765
  161en-    HQM 5776   2.072   1.075   0.537  1.0320 -0.6006 -1.3456
  161en-    HQM 5777   2.146   1.177   0.318  1.0574 -1.3257 -0.0789
  161en-    HQM 5778   1.773   1.093  -0.072 -0.7065  1.8168 -0.8244
  161en-    CQM 5779   1.966   1.180  -0.129 -0.6669  0.1126 -0.0663
  161en-    CQM 5780   2.092   1.219  -0.080 -0.0509 -0.7266 -0.2916
  161en-    CQM 5781   2.193   1.255  -0.162  0.2275 -0.1295 -0.0791
  161en-    CQM 5782   2.161   1.260  -0.301 -0.4608  0.0736  0.6100
  161en-    CQM 5783   2.264   1.295  -0.393  0.1957  0.5045 -0.4461
  161en-    CQM 5784   2.233   1.309  -0.529  0.1985  0.1823  0.3934
  161en-    CQM 5785   2.109   1.273  -0.578 -0.1818  0.0118  0.1480
  161en-    CQM 5786   2.013   1.226  -0.488  1.3846  0.3038  0.2434
  161en-    CQM 5787   2.034   1.227  -0.348  0.7262  0.1695  0.0258
  161en-    CQM 5788   1.938   1.187  -0.265  0.2893  0.1238  0.1790
  161en-    HQM 5789   1.842   1.152  -0.302  0.6192 -1.3918  0.7196
  161en-    HQM 5790   1.914   1.206  -0.528  1.1458  0.9803  0.4885
  161en-    HQM 5791   2.086   1.271  -0.685 -1.9402  1.5952  0.4559
  161en-    HQM 5792   2.310   1.320  -0.604 -1.2460 -1.5903 -1.3631
  161en-    HQM 5793   2.365   1.316  -0.358  0.5394 -1.4403 -0.2309
  161en-    HQM 5794   2.295   1.265  -0.126  0.5459  0.5962 -1.1576
  161en-    CQM 5795   2.113   1.208   0.058 -0.0737 -0.6166 -0.2160
  161en-    HQM 5796   2.207   1.230   0.108 -0.6527 -0.8165  0.9740
  162en-    CQM 5797   2.185   0.775   0.104 -0.7661 -0.7501  0.0857
  162en-    CQM 5798   2.083   0.756   0.203 -0.2923 -0.0280 -0.0654
  162en-    CQM 5799   2.109   0.688   0.325  0.5450 -0.0191  0.0194
  162en-    CQM 5800   2.012   0.686   0.422  0.5019  0.4896 -0.1732
  162en-    CQM 5801   2.041   0.626   0.546 -1.0331 -0.2059 -0.2411
  162en-    CQM 5802   2.166   0.567   0.567 -0.3184 -0.1360  0.3557
  162en-    CQM 5803   2.266   0.569   0.462  0.2918 -0.0636  0.2154
  162en-    CQM 5804   2.239   0.635   0.345  0.3006  0.3335  0.4411
  162en-    CQM 5805   2.335   0.650   0.247  0.1947  0.2110  0.7700
  162en-    CQM 5806   2.306   0.724   0.128 -0.4591 -0.1084 -0.1224
  162en-    CQM 5807   2.158   0.840  -0.018 -0.2899  0.0901  0.5872
  162en-    HQM 5808   1.985   0.798   0.180 -1.5077 -2.1518  1.0526
  162en-    HQM 5809   1.918   0.739   0.408 -0.0641 -0.3953  0.1851
  162en-    HQM 5810   1.967   0.632   0.626 -1.4139 -4.9106 -0.1163
  162en-    HQM 5811   2.194   0.525   0.662 -0.3452 -0.2224  0.3252
  162en-    HQM 5812   2.363   0.525   0.480 -0.0957 -1.0228  0.0101
  162en-    HQM 5813   2.427   0.596   0.266 -0.2998 -0.9571 -0.0839
  162en-    HQM 5814   2.064   0.888  -0.044  0.0271  0.5332  0.2500
  162en-    CQM 5815   2.253   0.844  -0.119  0.7170  0.1833  0.7753
  162en-    CQM 5816   2.379   0.787  -0.101 -0.1373 -0.3665 -0.1352
  162en-    CQM 5817   2.478   0.790  -0.201  0.1121 -0.0510  0.0831
  162en-    CQM 5818   2.446   0.843  -0.324 -0.0928 -0.3915  0.1636
  162en-    CQM 5819   2.545   0.847  -0.428  0.9360 -0.0350 -0.2810
  162en-    CQM 5820   2.524   0.915  -0.546  1.1242 -1.1517  0.0449
  162en-    CQM 5821   2.396   0.984  -0.562 -0.1641  0.0237  0.3516
  162en-    CQM 5822   2.297   0.978  -0.461  0.0099 -0.0696 -0.5058
  162en-    CQM 5823   2.327   0.915  -0.334 -0.2029  0.3641  0.7967
  162en-    CQM 5824   2.228   0.915  -0.240 -0.4522 -0.0619 -0.4911
  162en-    HQM 5825   2.137   0.973  -0.253 -0.0640  0.6862  0.0944
  162en-    HQM 5826   2.204   1.032  -0.479 -0.7476 -1.3265 -0.4000
  162en-    HQM 5827   2.380   1.050  -0.647  1.2935  1.2770  1.0340
  162en-    HQM 5828   2.596   0.933  -0.625 -0.1323  1.5509 -0.5314
  162en-    HQM 5829   2.636   0.790  -0.412  1.2149  1.0934  2.3910
  162en-    HQM 5830   2.577   0.747  -0.183  0.9189  1.2861 -1.0127
  162en-    CQM 5831   2.404   0.721   0.024 -0.1442  0.1647 -0.3957
  162en-    HQM 5832   2.498   0.670   0.042 -0.7544 -0.3314  1.5909
  163en-    CQM 5833   1.958   1.388   1.523 -0.4090 -0.2977  0.1736
  163en-    CQM 5834   1.864   1.331   1.607 -0.4041  0.0282  0.5667
  163en-    CQM 5835   1.889   1.308   1.744  0.3313  0.1453  0.2379
  163en-    CQM 5836   1.792   1.257   1.828  0.4066 -0.8954  0.0703
  163en-    CQM 5837   1.812   1.242   1.964  0.3379 -0.5669 -0.4141
  163en-    CQM 5838   1.930   1.295   2.018 -0.2230 -0.1492  0.2207
  163en-    CQM 5839   2.031   1.345   1.934 -0.0411 -0.4001 -0.4569
  163en-    CQM 5840   2.004   1.365   1.799  0.0695  0.2746  0.1746
  163en-    CQM 5841   2.101   1.421   1.721 -0.3115  0.7462 -0.4440
  163en-    CQM 5842   2.076   1.432   1.580 -0.6033 -0.5593  0.0399
  163en-    CQM 5843   1.927   1.406   1.384  0.1475 -0.0180  0.5129
  163en-    HQM 5844   1.768   1.302   1.567  0.7975 -1.1571 -1.5553
  163en-    HQM 5845   1.701   1.225   1.778  0.4602 -1.3253  0.2419
  163en-    HQM 5846   1.731   1.200   2.023  0.0975 -2.9989 -2.3804
  163en-    HQM 5847   1.942   1.279   2.125  1.7073 -1.7946 -0.2196
  163en-    HQM 5848   2.121   1.388   1.977 -1.7672  0.7253  2.1132
  163en-    HQM 5849   2.193   1.454   1.768 -0.1727 -1.2014  0.7278
  163en-    HQM 5850   1.841   1.359   1.338 -0.6572  1.3767  0.5773
  163en-    CQM 5851   2.023   1.467   1.300 -0.1153  0.3002 -0.5287
  163en-    CQM 5852   2.142   1.511   1.359  0.1706  0.3270 -0.0423
  163en-    CQM 5853   2.233   1.575   1.276  0.1432 -0.9179 -0.5338
  163en-    CQM 5854   2.210   1.598   1.142 -0.6309 -0.4653 -0.1163
  163en-    CQM 5855   2.308   1.655   1.059  0.1092  0.3262 -0.1431
  163en-    CQM 5856   2.288   1.654   0.922  0.5669  0.1087  0.2285
  163en-    CQM 5857   2.167   1.629   0.867 -0.1018  0.4958  0.5400
  163en-    CQM 5858   2.076   1.570   0.945  0.1606 -0.0057 -0.0862
  163en-    CQM 5859   2.095   1.545   1.082  0.5171 -0.4218  0.2933
  163en-    CQM 5860   2.002   1.474   1.164 -0.0395 -0.5178  0.0541
  163en-    HQM 5861   1.906   1.446   1.122 -0.8600  2.9361 -0.4690
  163en-    HQM 5862   1.979   1.550   0.902  0.0763  0.6598 -0.2112
  163en-    HQM 5863   2.160   1.628   0.758 -0.5519  0.6960  0.5646
  163en-    HQM 5864   2.365   1.696   0.858 -1.1923  1.8241 -0.7835
  163en-    HQM 5865   2.406   1.696   1.084  1.1191 -2.0912 -0.0131
  163en-    HQM 5866   2.335   1.597   1.309  0.5571  0.3437 -2.5940
  163en-    CQM 5867   2.169   1.489   1.494 -0.7529 -0.3866 -0.5304
  163en-    HQM 5868   2.259   1.523   1.543 -0.9636 -0.2379 -0.2486
  164en-    CQM 5869   2.240   1.069   1.535 -0.4171 -0.1071  0.6184
  164en-    CQM 5870   2.138   1.056   1.630  0.3754 -0.3398 -0.9649
  164en-    CQM 5871   2.164   0.992   1.753  0.2178  0.2484  0.1946
  164en-    CQM 5872   2.066   0.984   1.851 -0.4522  0.1592 -0.2208
  164en-    CQM 5873   2.091   0.909   1.969 -0.9497 -0.3695 -0.2155
  164en-    CQM 5874   2.217   0.856   1.999 -0.0355 -0.7272  0.0153
  164en-    CQM 5875   2.320   0.876   1.905  0.3603  0.7745  0.1686
  164en-    CQM 5876   2.292   0.941   1.783  0.1413 -0.2980 -0.3992
  164en-    CQM 5877   2.390   0.949   1.678 -1.0497 -0.2034  0.0131
  164en-    CQM 5878   2.363   1.015   1.557 -0.5794 -0.1330 -0.7120
  164en-    CQM 5879   2.220   1.142   1.415 -0.2366 -0.7272 -0.0016
  164en-    HQM 5880   2.042   1.101   1.608 -0.0693  0.1947  1.8657
  164en-    HQM 5881   1.973   1.036   1.829 -0.4976 -0.5020 -1.6606
  164en-    HQM 5882   2.013   0.895   2.043  0.6852 -0.4615  1.5485
  164en-    HQM 5883   2.231   0.800   2.091 -1.7374 -0.9506  0.1618
  164en-    HQM 5884   2.423   0.849   1.922  0.8702  2.0254 -0.8072
  164en-    HQM 5885   2.484   0.896   1.691  0.1265  1.7266 -0.5171
  164en-    HQM 5886   2.124   1.192   1.403 -0.0338 -0.0010  1.3252
  164en-    CQM 5887   2.308   1.140   1.306 -0.2577  0.6772 -0.0715
  164en-    CQM 5888   2.432   1.068   1.322  0.3670 -0.5220 -0.7358
  164en-    CQM 5889   2.520   1.061   1.219 -0.2971  0.5341 -0.2023
  164en-    CQM 5890   2.501   1.132   1.097 -0.9780  0.4507  0.3408
  164en-    CQM 5891   2.596   1.131   0.990 -0.3499  0.1645  0.3193
  164en-    CQM 5892   2.573   1.207   0.877  0.0173  0.0141 -0.3416
  164en-    CQM 5893   2.463   1.290   0.866  0.3225  0.1823  0.5880
  164en-    CQM 5894   2.366   1.287   0.965  0.5015  0.1115 -0.4852
  164en-    CQM 5895   2.386   1.216   1.084 -1.3050  0.4780  0.9825
  164en-    CQM 5896   2.289   1.213   1.184  0.0680  0.3503 -0.5346
  164en-    HQM 5897   2.195   1.267   1.176 -1.5662 -2.1505  1.1223
  164en-    HQM 5898   2.274   1.342   0.948 -1.4260 -3.6021 -2.7849
  164en-    HQM 5899   2.443   1.345   0.775  0.3067  1.7509  1.5200
  164en-    HQM 5900   2.640   1.201   0.791 -1.5222 -0.7927 -1.5266
  164en-    HQM 5901   2.675   1.057   0.997 -0.0404  0.1932 -2.4326
  164en-    HQM 5902   2.617   1.013   1.228 -0.5245  0.4373  1.9291
  164en-    CQM 5903   2.455   1.009   1.446  0.5706  0.2191 -0.9648
  164en-    HQM 5904   2.547   0.952   1.457  1.0805  0.9635 -1.2803
  165en-    CQM 5905   1.987   1.724   2.929  0.0897  0.1456 -0.1296
  165en-    CQM 5906   1.884   1.666   3.013 -0.2965 -0.5954 -0.4104
  165en-    CQM 5907   1.905   1.662   3.149  0.0159 -0.1048  0.3649
  165en-    CQM 5908   1.806   1.606   3.236  0.0448  0.1484 -0.3023
  165en-    CQM 5909   1.835   1.595   3.377 -0.0848 -0.4783 -0.6352
  165en-    CQM 5910   1.946   1.656   3.433  0.5419 -0.2318 -0.5900
  165en-    CQM 5911   2.045   1.704   3.351  0.2238 -0.8746  0.7566
  165en-    CQM 5912   2.026   1.708   3.212 -0.1881 -0.3096  0.0118
  165en-    CQM 5913   2.124   1.760   3.128  0.1474 -0.1996 -0.0156
  165en-    CQM 5914   2.108   1.766   2.988  1.2871 -0.1134 -0.4481
  165en-    CQM 5915   1.964   1.732   2.793  0.7233 -0.7547  0.3143
  165en-    HQM 5916   1.789   1.629   2.977  0.6887 -3.4543 -0.1903
  165en-    HQM 5917   1.719   1.554   3.197  0.9992 -0.7234 -1.3061
  165en-    HQM 5918   1.761   1.546   3.440 -0.5473  0.2931 -0.5779
  165en-    HQM 5919   1.950   1.650   3.541 -0.8037 -1.3345 -0.5814
  165en-    HQM 5920   2.131   1.752   3.398 -0.4777  0.7021  0.4715
  165en-    HQM 5921   2.216   1.800   3.170  0.6781 -2.0850  0.6515
  165en-    HQM 5922   1.868   1.692   2.763  0.6888  1.3848 -2.6523
  165en-    CQM 5923   2.059   1.783   2.708 -0.4751 -0.3480 -0.1321
  165en-    CQM 5924   2.183   1.827   2.763 -0.7410  0.7963 -0.2132
  165en-    CQM 5925   2.276   1.874   2.671  0.1043 -0.3978 -0.3306
  165en-    CQM 5926   2.249   1.883   2.536 -0.1901  0.1978 -1.4377
  165en-    CQM 5927   2.345   1.951   2.454 -0.1859 -0.2249  0.4549
  165en-    CQM 5928   2.318   1.969   2.320 -0.5496  0.0687 -0.4224
  165en-    CQM 5929   2.201   1.915   2.269  0.1245  0.6810  0.2502
  165en-    CQM 5930   2.106   1.853   2.350 -0.2529 -0.0836  0.0821
  165en-    CQM 5931   2.130   1.831   2.488  0.4601  0.1348  0.5171
  165en-    CQM 5932   2.034   1.785   2.574 -0.3088 -0.3798  0.4510
  165en-    HQM 5933   1.940   1.746   2.537 -0.9066 -0.9655  2.5310
  165en-    HQM 5934   2.018   1.819   2.296  0.4325  1.6279 -2.2119
  165en-    HQM 5935   2.181   1.922   2.162  0.3267 -2.7046 -0.0551
  165en-    HQM 5936   2.375   2.037   2.257  1.2301  0.4708  1.5523
  165en-    HQM 5937   2.440   1.983   2.498 -0.3501  1.4866 -0.3897
  165en-    HQM 5938   2.365   1.924   2.709 -1.2278  2.1297 -0.3935
  165en-    CQM 5939   2.206   1.820   2.901  0.3111  0.3364  0.0523
  165en-    HQM 5940   2.298   1.847   2.951 -0.3502 -1.2497  2.2299
  166en-    CQM 5941   2.300   1.420   2.908 -0.3989 -0.1105 -0.3710
  166en-    CQM 5942   2.200   1.422   3.010  0.5582 -0.5135 -0.3874
  166en-    CQM 5943   2.215   1.358   3.130 -0.0148 -0.0392 -0.5500
  166en-    CQM 5944   2.112   1.350   3.224 -0.1432  0.5401  0.5039
  166en-    CQM 5945   2.130   1.294   3.352 -0.0422  0.7207 -0.1500
  166en-    CQM 5946   2.251   1.239   3.379 -0.9004  0.2872  0.5601
  166en-    CQM 5947   2.359   1.241   3.288  0.4820  1.4718  0.8635
  166en-    CQM 5948   2.338   1.298   3.157  0.4567 -0.4827 -0.3414
  166en-    CQM 5949   2.441   1.298   3.057  0.3518  0.0311 -0.0816
  166en-    CQM 5950   2.423   1.359   2.930 -0.4759  0.3768 -0.3757
  166en-    CQM 5951   2.269   1.468   2.779 -0.5653  0.0598 -0.4760
  166en-    HQM 5952   2.109   1.478   2.994  0.7664  0.8720  2.8667
  166en-    HQM 5953   2.013   1.392   3.211 -0.9911 -1.7758 -0.7790
  166en-    HQM 5954   2.053   1.289   3.427  0.5517  0.5012  0.4464
  166en-    HQM 5955   2.273   1.193   3.475  0.8162 -2.2908 -1.0210
  166en-    HQM 5956   2.461   1.214   3.312 -0.0896 -0.0718  1.5738
  166en-    HQM 5957   2.538   1.253   3.078  0.7752  1.1488  0.3843
  166en-    HQM 5958   2.176   1.522   2.763 -0.2144  0.4652 -1.1867
  166en-    CQM 5959   2.360   1.468   2.676  0.1454 -0.4107 -0.0689
  166en-    CQM 5960   2.486   1.412   2.700  0.3652  0.1810 -0.5800
  166en-    CQM 5961   2.590   1.421   2.604 -1.3040  0.1570  0.6903
  166en-    CQM 5962   2.561   1.484   2.483  0.2695  0.3764  0.0767
  166en-    CQM 5963   2.660   1.495   2.384 -0.2443 -0.7503  0.0244
  166en-    CQM 5964   2.637   1.572   2.268  0.5088 -0.3220  0.2281
  166en-    CQM 5965   2.506   1.623   2.237 -0.4014  0.4805 -0.0453
  166en-    CQM 5966   2.407   1.608   2.332 -0.1099 -0.2951 -0.5858
  166en-    CQM 5967   2.431   1.542   2.456 -0.1847  0.9563  0.1284
  166en-    CQM 5968   2.333   1.535   2.553  0.7621  1.0982 -0.8771
  166en-    HQM 5969   2.230   1.565   2.539  0.7453  0.9082 -1.1870
  166en-    HQM 5970   2.311   1.659   2.323  0.5379  1.1593  0.4639
  166en-    HQM 5971   2.489   1.681   2.148  1.8046 -0.4506 -1.1262
  166en-    HQM 5972   2.717   1.591   2.197  1.5831 -0.7517  1.2943
  166en-    HQM 5973   2.756   1.450   2.406 -0.0085  0.8771  2.4952
  166en-    HQM 5974   2.690   1.382   2.622 -1.3959 -0.9263 -1.0577
  166en-    CQM 5975   2.514   1.352   2.826 -0.4018  0.2351 -0.1781
  166en-    HQM 5976   2.611   1.304   2.840 -0.0181  1.5336  1.7490
  167en-    CQM 5977   1.998   2.077   4.307  0.6361 -0.2895  0.2093
  167en-    CQM 5978   1.905   2.015   4.390 -0.2137 -0.1570  0.0682
  167en-    CQM 5979   1.927   2.002   4.527 -0.7497 -1.0649  0.1976
  167en-    CQM 5980   1.833   1.941   4.610  0.5577  0.7217  0.4324
  167en-    CQM 5981   1.862   1.932   4.749 -0.4032 -0.1795  0.6933
  167en-    CQM 5982   1.985   1.980   4.801  0.1797 -0.5405 -0.9208
  167en-    CQM 5983   2.077   2.039   4.717 -0.2018  0.2218 -0.0876
  167en-    CQM 5984   2.046   2.055   4.581  0.2575 -0.4429  0.0357
  167en-    CQM 5985   2.140   2.119   4.495  0.4483 -0.1858  0.4374
  167en-    CQM 5986   2.114   2.130   4.365 -0.1564  0.1059  0.4066
  167en-    CQM 5987   1.979   2.083   4.172  0.2241 -0.0701  0.4071
  167en-    HQM 5988   1.814   1.969   4.351 -0.7267  1.1408 -0.3101
  167en-    HQM 5989   1.739   1.910   4.566  0.8774 -0.5340  0.6088
  167en-    HQM 5990   1.799   1.869   4.811 -0.5806 -1.1596 -0.4523
  167en-    HQM 5991   2.006   1.965   4.906 -2.1496  1.2014 -0.1802
  167en-    HQM 5992   2.170   2.072   4.762 -0.2778 -0.7295  0.7787
  167en-    HQM 5993   2.230   2.155   4.544  0.7347 -0.6261  0.2403
  167en-    HQM 5994   1.888   2.045   4.127 -0.1878 -1.1279  2.0800
  167en-    CQM 5995   2.075   2.143   4.092  0.0121 -0.3510 -0.6000
  167en-    CQM 5996   2.194   2.189   4.144 -0.6065  1.3610 -0.5552
  167en-    CQM 5997   2.295   2.242   4.059  0.7960 -0.1789 -0.5346
  167en-    CQM 5998   2.279   2.248   3.924  0.3371  0.2430  0.2541
  167en-    CQM 5999   2.377   2.302   3.839  0.3752 -0.0953  0.2549
  167en-    CQM 6000   2.346   2.320   3.700 -0.3676  0.2520  0.2099
  167en-    CQM 6001   2.218   2.289   3.653 -0.0744  0.7074  0.1373
  167en-    CQM 6002   2.119   2.232   3.737 -0.6145  0.4237  0.3592
  167en-    CQM 6003   2.151   2.210   3.872 -0.0184 -0.6980  0.7826
  167en-    CQM 6004   2.051   2.160   3.955  0.0762  0.6925  0.3072
  167en-    HQM 6005   1.955   2.133   3.910 -0.4746  0.3751  1.6257
  167en-    HQM 6006   2.017   2.210   3.706 -0.7982  0.3552  1.0138
  167en-    HQM 6007   2.199   2.306   3.547  0.6798  1.0398  0.0559
  167en-    HQM 6008   2.408   2.371   3.626 -0.4561 -1.5832 -1.1812
  167en-    HQM 6009   2.473   2.336   3.877 -1.6735  4.4916  1.6412
  167en-    HQM 6010   2.392   2.273   4.097  1.2553 -1.2594 -0.8065
  167en-    CQM 6011   2.218   2.185   4.284  0.0934 -0.5653  0.3550
  167en-    HQM 6012   2.313   2.212   4.330  0.1170 -1.1247  0.6469
  168en-    CQM 6013   2.325   1.779   4.312  0.8015 -0.0418 -0.0551
  168en-    CQM 6014   2.226   1.776   4.412 -0.3186 -0.2774 -0.3016
  168en-    CQM 6015   2.241   1.704   4.527 -0.4103  0.0666  0.4242
  168en-    CQM 6016   2.142   1.696   4.618  0.4129  0.0789 -0.5737
  168en-    CQM 6017   2.154   1.625   4.742  0.7996  0.5006  0.8093
  168en-    CQM 6018   2.280   1.561   4.765 -0.0094 -0.2956  0.3238
  168en-    CQM 6019   2.384   1.567   4.666 -0.1865 -0.8091 -0.3202
  168en-    CQM 6020   2.362   1.637   4.548 -0.3778 -0.2189  1.0653
  168en-    CQM 6021   2.462   1.638   4.450  0.1509 -0.5799  0.7872
  168en-    CQM 6022   2.444   1.705   4.332 -0.2971  0.0451 -0.0782
  168en-    CQM 6023   2.303   1.852   4.199  0.5755 -0.2280 -0.1551
  168en-    HQM 6024   2.137   1.837   4.399  0.1279  0.7909  1.5401
  168en-    HQM 6025   2.048   1.746   4.597  0.7007 -0.4519 -3.2683
  168en-    HQM 6026   2.076   1.633   4.816  0.4648 -0.2728  0.5384
  168en-    HQM 6027   2.296   1.507   4.858 -0.4293  1.0161  1.1729
  168en-    HQM 6028   2.485   1.531   4.684 -0.1990 -1.0257 -0.6738
  168en-    HQM 6029   2.559   1.598   4.476 -0.8345 -1.6285  2.9279
  168en-    HQM 6030   2.203   1.893   4.188  0.5617  0.6149  2.7310
  168en-    CQM 6031   2.395   1.843   4.094  0.1751  0.1161  0.0738
  168en-    CQM 6032   2.521   1.779   4.116  0.0177  1.0300  0.5759
  168en-    CQM 6033   2.616   1.778   4.015 -0.3676  0.3605  0.1503
  168en-    CQM 6034   2.593   1.843   3.891 -0.0805  0.1082  0.1861
  168en-    CQM 6035   2.694   1.845   3.789  0.6598  0.0701  0.5482
  168en-    CQM 6036   2.661   1.913   3.668 -0.4259 -0.6505 -0.1676
  168en-    CQM 6037   2.536   1.975   3.648 -0.1906 -0.3971  0.6345
  168en-    CQM 6038   2.432   1.958   3.741  0.1817  0.4138  0.7171
  168en-    CQM 6039   2.464   1.899   3.865 -0.1069 -0.3380 -0.1804
  168en-    CQM 6040   2.369   1.904   3.969 -0.3422  0.1889 -0.1052
  168en-    HQM 6041   2.274   1.957   3.963  0.7535  2.4608  1.6622
  168en-    HQM 6042   2.334   2.003   3.728 -0.2298 -1.1234 -1.8622
  168en-    HQM 6043   2.522   2.025   3.553  0.6906 -0.7195  0.3231
  168en-    HQM 6044   2.736   1.924   3.590  0.1269 -1.1143  0.2983
  168en-    HQM 6045   2.791   1.797   3.799  1.4105  1.4840  0.0631
  168en-    HQM 6046   2.714   1.732   4.019 -0.1746  0.2503 -3.9056
  168en-    CQM 6047   2.542   1.711   4.230 -0.2004  0.5817 -0.4538
  168en-    HQM 6048   2.635   1.657   4.239 -0.2630  0.4380 -0.6468
  169en-    CQM 6049   2.081   2.433   5.703 -0.2694  0.0277  0.3315
  169en-    CQM 6050   1.979   2.371   5.781  0.1704 -0.0292  0.3597
  169en-    CQM 6051   2.006   2.350   5.916  0.0339  0.0629 -0.1405
  169en-    CQM 6052   1.904   2.288   5.996  0.4833  0.1662  0.0981
  169en-    CQM 6053   1.933   2.256   6.130 -0.0424 -0.7295 -0.0540
  169en-    CQM 6054   2.042   2.319   6.197  0.0540  0.1239  0.2169
  169en-    CQM 6055   2.141   2.381   6.120 -0.4414  0.4012 -0.0928
  169en-    CQM 6056   2.122   2.398   5.978  0.2596 -0.9720  0.0099
  169en-    CQM 6057   2.220   2.467   5.903  0.3700  0.8101 -0.3733
  169en-    CQM 6058   2.197   2.480   5.763  0.0873 -0.6831  0.5691
  169en-    CQM 6059   2.064   2.435   5.561  0.4122  0.7420 -0.5239
  169en-    HQM 6060   1.887   2.342   5.732 -1.2590  1.0105  2.3638
  169en-    HQM 6061   1.809   2.259   5.952 -0.9576  2.6797  1.5004
  169en-    HQM 6062   1.857   2.207   6.190 -1.0800 -0.0161 -0.7759
  169en-    HQM 6063   2.040   2.319   6.306 -0.3164 -0.3753  0.2124
  169en-    HQM 6064   2.231   2.418   6.167  0.0492  1.7830 -2.0724
  169en-    HQM 6065   2.313   2.501   5.948  1.0937 -1.6961  0.0825
  169en-    HQM 6066   1.974   2.394   5.518  1.0160  1.2855 -2.3301
  169en-    CQM 6067   2.165   2.483   5.478 -0.3396 -1.0637 -0.3502
  169en-    CQM 6068   2.281   2.533   5.539 -0.0307  0.3737 -0.2036
  169en-    CQM 6069   2.380   2.584   5.459 -0.0313  0.4962 -0.5766
  169en-    CQM 6070   2.361   2.590   5.318 -0.5720  0.0867 -0.5359
  169en-    CQM 6071   2.464   2.639   5.237  0.1906  0.2378 -0.1996
  169en-    CQM 6072   2.444   2.668   5.100 -0.4752 -0.4639  0.2471
  169en-    CQM 6073   2.325   2.627   5.040 -0.8211 -0.0360  0.0443
  169en-    CQM 6074   2.222   2.579   5.118 -0.3208  0.0328 -0.1156
  169en-    CQM 6075   2.241   2.558   5.257 -0.1031 -0.7406  0.3507
  169en-    CQM 6076   2.149   2.499   5.342 -0.0915  0.5028 -0.4534
  169en-    HQM 6077   2.056   2.468   5.295  0.2781 -1.3857  0.0342
  169en-    HQM 6078   2.128   2.555   5.070 -0.8205  2.6370 -0.5390
  169en-    HQM 6079   2.299   2.652   4.938  0.8241 -2.4155 -0.9896
  169en-    HQM 6080   2.523   2.723   5.050 -1.4304  0.5005 -0.2251
  169en-    HQM 6081   2.556   2.669   5.288 -0.5101  1.3327  0.4239
  169en-    HQM 6082   2.471   2.626   5.501 -0.6499  1.1570  0.0969
  169en-    CQM 6083   2.296   2.537   5.678  0.0597 -0.1251 -0.3402
  169en-    HQM 6084   2.383   2.589   5.715 -0.9842  1.0978  0.4487
  170en-    CQM 6085   2.380   2.104   5.672  0.5249  0.8360  0.2378
  170en-    CQM 6086   2.277   2.103   5.764  0.5386  0.6268  0.1715
  170en-    CQM 6087   2.304   2.043   5.884  0.0620 -0.4356  0.7024
  170en-    CQM 6088   2.207   2.039   5.984 -0.3274 -0.0386 -0.1890
  170en-    CQM 6089   2.229   1.990   6.114  0.6756  0.2796 -0.4116
  170en-    CQM 6090   2.350   1.922   6.136  0.3604 -0.1059 -0.2371
  170en-    CQM 6091   2.451   1.917   6.039 -0.0051  0.3671 -0.4672
  170en-    CQM 6092   2.420   1.974   5.914  0.0689 -0.0896  0.3717
  170en-    CQM 6093   2.523   1.969   5.815  0.1881  0.1619  0.5382
  170en-    CQM 6094   2.499   2.036   5.695 -0.1284  0.4202 -0.3519
  170en-    CQM 6095   2.361   2.172   5.553  0.4447  0.6438 -0.1099
  170en-    HQM 6096   2.189   2.167   5.759  0.4954  0.6003  0.5818
  170en-    HQM 6097   2.113   2.088   5.960  0.4576  1.4902 -0.2157
  170en-    HQM 6098   2.155   2.003   6.193 -0.6201 -2.5578 -1.0890
  170en-    HQM 6099   2.366   1.858   6.223  0.9070  0.8420  0.3678
  170en-    HQM 6100   2.544   1.865   6.059  0.3706  1.2453  0.0393
  170en-    HQM 6101   2.619   1.924   5.840 -0.1283 -0.1965  1.1388
  170en-    HQM 6102   2.269   2.228   5.544 -1.3028 -1.7118  2.2404
  170en-    CQM 6103   2.461   2.179   5.456  0.3819  0.1334 -0.1602
  170en-    CQM 6104   2.577   2.106   5.475  0.7214  0.6478  0.1267
  170en-    CQM 6105   2.678   2.099   5.380 -0.2254 -0.2914 -0.3129
  170en-    CQM 6106   2.655   2.172   5.265 -0.6511  0.2434  0.2719
  170en-    CQM 6107   2.753   2.169   5.167 -0.6170  0.0697 -0.7012
  170en-    CQM 6108   2.733   2.225   5.037 -0.1919  0.1615 -0.0617
  170en-    CQM 6109   2.615   2.293   5.007 -0.0039  0.0841 -0.7004
  170en-    CQM 6110   2.516   2.300   5.105 -0.0678 -0.2492  0.1737
  170en-    CQM 6111   2.539   2.241   5.233 -0.1475  0.1318 -0.1300
  170en-    CQM 6112   2.440   2.251   5.336 -0.2574  0.0088  0.2307
  170en-    HQM 6113   2.345   2.298   5.310  0.0788  0.9163  0.6577
  170en-    HQM 6114   2.423   2.348   5.076  1.4607  0.5777 -3.6255
  170en-    HQM 6115   2.599   2.339   4.911 -3.3068  0.1234 -0.1804
  170en-    HQM 6116   2.817   2.218   4.969 -1.1023 -2.7690 -0.9672
  170en-    HQM 6117   2.849   2.118   5.170 -0.6007 -0.0602 -2.6349
  170en-    HQM 6118   2.770   2.046   5.402  0.6629  1.5166  0.4870
  170en-    CQM 6119   2.601   2.040   5.598  0.5756  1.1751  0.1203
  170en-    HQM 6120   2.690   1.978   5.603 -0.0552  0.1681 -0.6970
  171en-    CQM 6121   1.978   1.866   0.083 -0.2259 -0.0061 -0.7334
  171en-    CQM 6122   1.879   1.811   0.169 -0.8976 -0.5590  0.6829
  171en-    CQM 6123   1.900   1.798   0.304 -0.5363  0.7509 -0.3554
  171en-    CQM 6124   1.793   1.757   0.392  0.2311  0.7767 -0.0081
  171en-    CQM 6125   1.813   1.743   0.526  0.4783  0.1744 -0.1359
  171en-    CQM 6126   1.942   1.770   0.575  0.5498  0.3849 -0.3813
  171en-    CQM 6127   2.043   1.808   0.491 -0.0280 -0.0633 -0.4039
  171en-    CQM 6128   2.024   1.829   0.356  0.4645  0.1244  0.0161
  171en-    CQM 6129   2.127   1.879   0.270  0.2777  0.1329 -0.3695
  171en-    CQM 6130   2.106   1.901   0.136  0.2722  0.5203 -0.0412
  171en-    CQM 6131   1.952   1.894  -0.053 -0.3875  0.0462 -0.2700
  171en-    HQM 6132   1.781   1.800   0.123  0.6611  1.7256 -3.4801
  171en-    HQM 6133   1.697   1.740   0.345  0.2935 -0.7646  0.3968
  171en-    HQM 6134   1.734   1.705   0.590  0.0127  0.6076 -0.4496
  171en-    HQM 6135   1.968   1.741   0.676 -1.2846 -1.3652 -0.3720
  171en-    HQM 6136   2.144   1.820   0.527 -0.0660  1.2680 -0.6971
  171en-    HQM 6137   2.225   1.907   0.308  0.0734 -0.6719  0.7722
  171en-    HQM 6138   1.856   1.873  -0.099  0.8561 -0.1777 -2.8762
  171en-    CQM 6139   2.047   1.952  -0.140 -1.0910  0.4918  0.6850
  171en-    CQM 6140   2.171   1.989  -0.086  0.2945 -0.5725  0.4139
  171en-    CQM 6141   2.277   2.038  -0.163 -0.4921 -0.1214  0.2954
  171en-    CQM 6142   2.251   2.053  -0.302 -0.3435 -0.2107 -0.3481
  171en-    CQM 6143   2.355   2.097  -0.388 -0.8417  0.1920 -0.4520
  171en-    CQM 6144   2.333   2.119  -0.527  0.1174  0.1684 -0.3579
  171en-    CQM 6145   2.211   2.084  -0.581  0.3374 -0.1234 -0.6584
  171en-    CQM 6146   2.104   2.039  -0.504  0.2326 -0.4718  0.1826
  171en-    CQM 6147   2.123   2.022  -0.363  0.0609  0.5193  0.6266
  171en-    CQM 6148   2.019   1.978  -0.276  0.4357 -0.2065  0.6105
  171en-    HQM 6149   1.931   1.933  -0.320 -0.4338 -0.0362  2.1745
  171en-    HQM 6150   2.007   2.023  -0.551 -0.3087  0.7799  0.8563
  171en-    HQM 6151   2.208   2.103  -0.688 -0.4009 -1.0666 -0.8202
  171en-    HQM 6152   2.409   2.170  -0.586  0.7731 -1.2932 -0.7905
  171en-    HQM 6153   2.455   2.118  -0.353 -0.6578  0.4108 -1.0926
  171en-    HQM 6154   2.370   2.074  -0.121 -0.3971 -0.2838  0.2218
  171en-    CQM 6155   2.205   1.959   0.050 -0.0124  0.0591  0.0377
  171en-    HQM 6156   2.308   1.977   0.077  0.1232 -1.0069  0.2693
  172en-    CQM 6157   2.249   1.538   0.142  0.2526  0.1041 -0.3272
  172en-    CQM 6158   2.142   1.527   0.237 -0.5610 -0.9416 -0.2582
  172en-    CQM 6159   2.168   1.462   0.358  0.0994 -0.4732  0.1812
  172en-    CQM 6160   2.071   1.477   0.454 -0.3697 -0.4348 -0.2243
  172en-    CQM 6161   2.106   1.437   0.586  0.2786 -0.0323  0.4193
  172en-    CQM 6162   2.223   1.364   0.609  0.2556  0.3620  0.2018
  172en-    CQM 6163   2.314   1.342   0.507  0.2995  0.0339  0.7096
  172en-    CQM 6164   2.290   1.394   0.378 -0.1267 -0.4656 -0.0135
  172en-    CQM 6165   2.387   1.393   0.276  0.1923 -0.3421  0.2412
  172en-    CQM 6166   2.366   1.471   0.156 -0.3119 -0.2771  0.0599
  172en-    CQM 6167   2.223   1.600   0.023 -0.6811 -0.1985 -0.0601
  172en-    HQM 6168   2.045   1.573   0.220 -1.5836 -2.2848  1.7954
  172en-    HQM 6169   1.982   1.536   0.432  1.2691  2.4585  0.5828
  172en-    HQM 6170   2.035   1.461   0.665 -1.2638 -0.0481 -0.9400
  172en-    HQM 6171   2.233   1.321   0.709  2.1068 -2.4184 -1.1125
  172en-    HQM 6172   2.406   1.289   0.530  0.0164 -0.7416  0.0893
  172en-    HQM 6173   2.487   1.352   0.286  0.6967  0.4121 -1.4635
  172en-    HQM 6174   2.126   1.649   0.012 -0.1360  1.3238  1.5948
  172en-    CQM 6175   2.316   1.592  -0.083 -0.5979 -0.3091  0.1725
  172en-    CQM 6176   2.446   1.536  -0.067 -0.0059 -1.4603  0.7013
  172en-    CQM 6177   2.543   1.541  -0.171  0.2464  0.1044 -0.0160
  172en-    CQM 6178   2.513   1.595  -0.294 -0.3366 -1.2468 -0.6616
  172en-    CQM 6179   2.603   1.589  -0.398  0.3811  0.8655 -0.6079
  172en-    CQM 6180   2.577   1.659  -0.518 -0.3328  0.1840  0.2372
  172en-    CQM 6181   2.457   1.737  -0.534  0.4144 -0.3646 -0.2533
  172en-    CQM 6182   2.361   1.727  -0.434 -0.3945 -0.1127 -0.8264
  172en-    CQM 6183   2.385   1.659  -0.316  0.4534  0.6789 -0.0648
  172en-    CQM 6184   2.291   1.662  -0.203  0.2672  0.6091  0.0231
  172en-    HQM 6185   2.206   1.728  -0.218  2.2301  2.7884 -1.9674
  172en-    HQM 6186   2.265   1.774  -0.453  0.6488  1.4819 -2.2923
  172en-    HQM 6187   2.437   1.786  -0.628 -0.7665 -1.6255 -0.6701
  172en-    HQM 6188   2.656   1.658  -0.592 -0.4937  0.6766  0.0546
  172en-    HQM 6189   2.698   1.537  -0.389 -0.5325 -0.5650  1.0808
  172en-    HQM 6190   2.635   1.489  -0.147  0.2392  0.8937  1.8623
  172en-    CQM 6191   2.468   1.470   0.056 -0.3137  0.2492  0.5120
  172en-    HQM 6192   2.558   1.410   0.058 -0.1112  0.3105 -3.0330
  173en-    CQM 6193   2.022   2.186   1.499 -0.4644  0.4167 -0.4646
  173en-    CQM 6194   1.927   2.127   1.583 -0.6755  0.0953 -0.4415
  173en-    CQM 6195   1.947   2.123   1.718  0.5374  0.8568  0.2750
  173en-    CQM 6196   1.843   2.072   1.800 -0.1228 -0.2990  0.4155
  173en-    CQM 6197   1.863   2.056   1.936  0.0320 -0.7554 -0.4329
  173en-    CQM 6198   1.992   2.087   1.990  0.4961 -0.0579 -0.1448
  173en-    CQM 6199   2.089   2.142   1.912 -0.0910  0.0059 -0.1720
  173en-    CQM 6200   2.065   2.165   1.777 -0.4812 -0.1289  0.1256
  173en-    CQM 6201   2.161   2.229   1.691 -0.2336 -0.8003  0.6786
  173en-    CQM 6202   2.144   2.233   1.555 -0.0580 -0.3296 -1.0202
  173en-    CQM 6203   2.006   2.199   1.359 -0.3794 -0.0943  0.1101
  173en-    HQM 6204   1.839   2.075   1.544  0.6157 -0.2196 -3.0013
  173en-    HQM 6205   1.747   2.046   1.754 -0.7773  0.6366  1.2514
  173en-    HQM 6206   1.781   2.015   1.994 -0.0339 -2.9145 -2.0134
  173en-    HQM 6207   2.031   2.067   2.089 -0.0634  2.3520  0.5894
  173en-    HQM 6208   2.188   2.155   1.954  0.7944 -3.2167 -1.1247
  173en-    HQM 6209   2.249   2.275   1.735  0.5768 -1.4212 -0.2681
  173en-    HQM 6210   1.915   2.156   1.319  0.4534 -0.3934 -1.5059
  173en-    CQM 6211   2.103   2.257   1.273  0.3483 -0.6980  0.2226
  173en-    CQM 6212   2.223   2.302   1.332  0.5141 -0.2007  0.5733
  173en-    CQM 6213   2.323   2.357   1.241  0.1253  0.2227 -0.2680
  173en-    CQM 6214   2.298   2.374   1.105  0.5810 -0.1573 -0.0756
  173en-    CQM 6215   2.391   2.444   1.021  0.3575  0.3130 -0.3199
  173en-    CQM 6216   2.363   2.464   0.881  1.2197 -0.2184 -0.5493
  173en-    CQM 6217   2.246   2.403   0.827 -0.0403  0.4229 -0.5536
  173en-    CQM 6218   2.154   2.331   0.910  0.4302  0.0939  0.0580
  173en-    CQM 6219   2.175   2.325   1.052  0.2637  0.2099 -0.5862
  173en-    CQM 6220   2.076   2.267   1.133  0.0233  0.0328 -0.0571
  173en-    HQM 6221   1.982   2.239   1.087 -0.2453 -0.1360  0.5963
  173en-    HQM 6222   2.061   2.298   0.865  0.8386 -0.7327 -0.1967
  173en-    HQM 6223   2.225   2.401   0.720 -0.5508  1.8513 -0.4799
  173en-    HQM 6224   2.430   2.526   0.821 -0.5915  3.4167  1.0014
  173en-    HQM 6225   2.485   2.480   1.061  0.3389  0.2431 -0.2133
  173en-    HQM 6226   2.416   2.400   1.276  0.0964 -0.4047  0.6114
  173en-    CQM 6227   2.241   2.303   1.473 -0.4143  0.9574 -0.3963
  173en-    HQM 6228   2.331   2.346   1.517 -0.1332 -0.6996  0.6887
  174en-    CQM 6229   2.288   1.861   1.527  0.0022 -0.0567 -0.7273
  174en-    CQM 6230   2.181   1.856   1.618 -0.2317  0.4094  0.5328
  174en-    CQM 6231   2.205   1.789   1.744 -0.3705  0.5871 -0.3706
  174en-    CQM 6232   2.102   1.786   1.838  0.0139 -0.6312  0.5240
  174en-    CQM 6233   2.127   1.740   1.966 -0.4205  0.2537  0.4566
  174en-    CQM 6234   2.244   1.676   1.994  0.6527  0.0472 -0.0974
  174en-    CQM 6235   2.348   1.669   1.898  0.4938  0.0278  0.3063
  174en-    CQM 6236   2.325   1.729   1.768 -0.7313 -0.2474 -0.8347
  174en-    CQM 6237   2.427   1.736   1.679  0.1854 -0.2055  0.4967
  174en-    CQM 6238   2.410   1.799   1.555 -0.2340  0.2998  0.4395
  174en-    CQM 6239   2.263   1.918   1.406  0.4889 -0.4468  0.2815
  174en-    HQM 6240   2.083   1.901   1.609 -0.4242 -0.2205 -0.5531
  174en-    HQM 6241   2.009   1.839   1.816 -1.2309 -3.2036 -0.5982
  174en-    HQM 6242   2.049   1.740   2.041 -1.6079 -1.2486 -0.7576
  174en-    HQM 6243   2.263   1.631   2.091  0.1863  0.8853  0.3883
  174en-    HQM 6244   2.437   1.611   1.922  0.8527  0.0122 -1.0358
  174en-    HQM 6245   2.519   1.687   1.709 -1.4244 -2.1282  2.4687
  174en-    HQM 6246   2.165   1.963   1.389  0.6169 -1.3935 -3.5841
  174en-    CQM 6247   2.358   1.927   1.305  0.5809 -0.3224 -0.3833
  174en-    CQM 6248   2.487   1.875   1.331 -0.6534 -0.0348  0.2773
  174en-    CQM 6249   2.590   1.876   1.233  0.1943  0.0911 -0.2252
  174en-    CQM 6250   2.569   1.940   1.107  0.3379 -0.0840 -0.5628
  174en-    CQM 6251   2.675   1.937   1.009  0.2828 -0.2050  0.0493
  174en-    CQM 6252   2.646   2.006   0.887 -0.3455  0.5304  0.8217
  174en-    CQM 6253   2.522   2.051   0.857  0.2842 -0.1429  0.2673
  174en-    CQM 6254   2.413   2.054   0.951 -0.8618  0.3520  0.7878
  174en-    CQM 6255   2.440   1.994   1.075  0.9261  0.1729 -0.4121
  174en-    CQM 6256   2.338   1.988   1.174  0.1702 -1.1078  0.3588
  174en-    HQM 6257   2.245   2.041   1.159  0.9333  0.2478  0.3537
  174en-    HQM 6258   2.322   2.104   0.920  0.4419  1.1889 -1.8822
  174en-    HQM 6259   2.515   2.106   0.763 -1.1576  0.0859  0.4934
  174en-    HQM 6260   2.727   2.024   0.816 -0.3807 -0.1025  0.6180
  174en-    HQM 6261   2.772   1.894   1.033 -0.9952 -4.4181 -1.8681
  174en-    HQM 6262   2.687   1.831   1.251  0.6479  0.1931 -2.3362
  174en-    CQM 6263   2.512   1.808   1.451  0.2790  0.2473 -0.5134
  174en-    HQM 6264   2.612   1.773   1.473 -0.3302 -1.0543  0.2772
  175en-    CQM 6265   2.052   2.509   2.879 -0.0578 -0.2831  0.5139
  175en-    CQM 6266   1.948   2.470   2.958  0.1445 -0.9842 -0.5724
  175en-    CQM 6267   1.959   2.471   3.099 -0.3141  0.7344 -0.1317
  175en-    CQM 6268   1.855   2.411   3.176 -0.4125 -0.5780 -0.1732
  175en-    CQM 6269   1.863   2.414   3.313 -0.0039  0.6763 -0.0718
  175en-    CQM 6270   1.980   2.452   3.378  0.4053  0.4547  0.6238
  175en-    CQM 6271   2.083   2.506   3.303 -0.3779  0.5728 -0.0690
  175en-    CQM 6272   2.077   2.508   3.158  0.6684 -0.4846  0.5438
  175en-    CQM 6273   2.179   2.563   3.077 -0.0285  0.4246  0.5674
  175en-    CQM 6274   2.171   2.551   2.943 -0.2929 -0.2520 -0.6633
  175en-    CQM 6275   2.045   2.504   2.736 -0.3283  0.4037  0.2452
  175en-    HQM 6276   1.855   2.435   2.915 -1.0665 -1.9935  2.6581
  175en-    HQM 6277   1.769   2.369   3.124  0.4325 -2.4295 -0.1096
  175en-    HQM 6278   1.783   2.377   3.376 -1.7471  1.8754 -1.5525
  175en-    HQM 6279   1.976   2.452   3.486 -0.6028  0.4179  0.5881
  175en-    HQM 6280   2.178   2.532   3.350 -1.0734  1.8100  0.6696
  175en-    HQM 6281   2.274   2.598   3.117  0.6133 -0.1672 -0.4075
  175en-    HQM 6282   1.950   2.474   2.692 -1.4388  0.0202  2.8222
  175en-    CQM 6283   2.147   2.551   2.656  0.0269 -0.6887 -0.0541
  175en-    CQM 6284   2.260   2.601   2.721 -0.2872 -0.3918 -0.6272
  175en-    CQM 6285   2.363   2.659   2.640  0.0626  0.3639  0.5549
  175en-    CQM 6286   2.352   2.656   2.501  0.1053 -0.2855  0.4218
  175en-    CQM 6287   2.439   2.723   2.419  0.0198 -0.3000  0.2828
  175en-    CQM 6288   2.423   2.748   2.280  0.2056  0.1729 -0.5204
  175en-    CQM 6289   2.310   2.680   2.222  0.4556 -0.6535  0.2500
  175en-    CQM 6290   2.217   2.606   2.299 -0.2825  0.3985 -0.2134
  175en-    CQM 6291   2.242   2.601   2.436  0.0612  0.6512 -0.7216
  175en-    CQM 6292   2.139   2.549   2.518  0.0880  0.2144 -0.3113
  175en-    HQM 6293   2.047   2.514   2.471 -1.5764  2.5721  1.1287
  175en-    HQM 6294   2.140   2.558   2.240  0.4455 -1.3751  0.2324
  175en-    HQM 6295   2.296   2.693   2.115  0.8820  1.4416  0.4236
  175en-    HQM 6296   2.491   2.808   2.220  0.8096  0.0883  0.0640
  175en-    HQM 6297   2.528   2.761   2.468  0.0816  0.9842 -0.8158
  175en-    HQM 6298   2.443   2.710   2.693 -0.6475  1.2480  0.7958
  175en-    CQM 6299   2.278   2.598   2.866 -0.3963  0.2292  0.3229
  175en-    HQM 6300   2.365   2.640   2.915 -1.8994  1.3182  2.1136
  176en-    CQM 6301   2.339   2.168   2.887 -0.4775  0.0000 -1.1775
  176en-    CQM 6302   2.248   2.186   2.989 -0.7819 -0.1093  1.0943
  176en-    CQM 6303   2.264   2.134   3.113 -0.4398  0.6518  0.0952
  176en-    CQM 6304   2.170   2.160   3.216  0.5969  0.1011  0.6040
  176en-    CQM 6305   2.185   2.111   3.344  0.2214 -0.5981 -0.2354
  176en-    CQM 6306   2.297   2.030   3.376  0.6917 -0.0795 -0.3821
  176en-    CQM 6307   2.406   2.018   3.284 -0.2401 -0.6041 -0.2524
  176en-    CQM 6308   2.383   2.067   3.150 -0.9708  0.1595 -0.0117
  176en-    CQM 6309   2.484   2.053   3.047  0.6738 -0.1956 -0.1650
  176en-    CQM 6310   2.458   2.095   2.915  0.4042  0.3317  0.6730
  176en-    CQM 6311   2.315   2.222   2.765  1.0616  0.0159  0.4703
  176en-    HQM 6312   2.163   2.248   2.962  0.8341  1.8201  0.2980
  176en-    HQM 6313   2.077   2.212   3.194  0.4292 -0.3683  0.1907
  176en-    HQM 6314   2.101   2.124   3.412  0.2536 -0.4016 -0.2316
  176en-    HQM 6315   2.315   1.980   3.471 -1.5523 -2.4751 -1.1652
  176en-    HQM 6316   2.495   1.959   3.307  0.2949 -0.8693 -2.7686
  176en-    HQM 6317   2.585   2.019   3.071  0.7500 -1.8799 -2.7011
  176en-    HQM 6318   2.218   2.269   2.750  0.2816 -0.3674  4.0202
  176en-    CQM 6319   2.414   2.229   2.665 -0.5852 -0.1137 -0.5565
  176en-    CQM 6320   2.539   2.162   2.693  0.7394 -0.0614 -0.7609
  176en-    CQM 6321   2.645   2.177   2.604 -0.1838  0.3016  0.5519
  176en-    CQM 6322   2.621   2.230   2.476  0.6601 -0.3612  0.5069
  176en-    CQM 6323   2.723   2.236   2.383 -0.5872 -0.4958  0.6529
  176en-    CQM 6324   2.707   2.297   2.257 -0.0377 -0.2361  0.3521
  176en-    CQM 6325   2.588   2.357   2.227  0.1027 -0.3831 -0.0324
  176en-    CQM 6326   2.486   2.362   2.321  0.4093 -0.0230  0.5550
  176en-    CQM 6327   2.498   2.293   2.448 -0.1999  0.2186 -1.0972
  176en-    CQM 6328   2.391   2.294   2.543  0.0178  1.1018  0.1471
  176en-    HQM 6329   2.296   2.345   2.534 -1.0232 -0.5814  1.3175
  176en-    HQM 6330   2.392   2.408   2.291  0.0691  0.2657  2.0483
  176en-    HQM 6331   2.572   2.408   2.132 -3.5056  0.4502  0.9592
  176en-    HQM 6332   2.791   2.292   2.188 -0.7696 -1.3662 -0.4764
  176en-    HQM 6333   2.821   2.195   2.406 -0.0365  0.1965 -0.4516
  176en-    HQM 6334   2.748   2.156   2.633  0.4026  2.4063  0.1144
  176en-    CQM 6335   2.555   2.099   2.821 -0.0039 -0.2079 -0.0176
  176en-    HQM 6336   2.657   2.069   2.844  0.5781  0.0653 -2.1619
  177en-    CQM 6337   2.114   2.854   4.275 -0.4734  0.3527  0.4186
  177en-    CQM 6338   2.015   2.811   4.358 -0.3800  0.4172 -0.6212
  177en-    CQM 6339   2.040   2.800   4.500 -0.5308 -0.2745  0.8080
  177en-    CQM 6340   1.947   2.729   4.578 -0.4492  0.3879 -0.2385
  177en-    CQM 6341   1.968   2.719   4.718  0.7464 -0.2502  0.2193
  177en-    CQM 6342   2.089   2.766   4.774 -0.5276  0.1953 -0.6604
  177en-    CQM 6343   2.189   2.819   4.692  0.0266  0.0904 -0.0345
  177en-    CQM 6344   2.170   2.840   4.551 -0.3548 -0.0480 -0.5846
  177en-    CQM 6345   2.273   2.886   4.466  0.2751 -0.5837 -0.1714
  177en-    CQM 6346   2.241   2.889   4.330  0.1095 -0.3824  0.5074
  177en-    CQM 6347   2.100   2.857   4.133  0.6652 -0.3351  0.6592
  177en-    HQM 6348   1.925   2.767   4.316  0.9271 -2.4714 -0.4760
  177en-    HQM 6349   1.852   2.702   4.533  0.9667 -3.2183 -1.2589
  177en-    HQM 6350   1.887   2.671   4.773 -1.4515  1.5357 -1.3679
  177en-    HQM 6351   2.108   2.767   4.881  0.6539  2.3829 -0.8680
  177en-    HQM 6352   2.284   2.845   4.738 -0.8504 -2.7160  3.5651
  177en-    HQM 6353   2.367   2.928   4.500  0.8580 -1.3259 -0.8457
  177en-    HQM 6354   2.008   2.815   4.092  0.7588 -0.8156  0.9414
  177en-    CQM 6355   2.201   2.909   4.047  0.2407  0.2175  0.1816
  177en-    CQM 6356   2.321   2.953   4.105 -0.1908 -0.3130  0.2752
  177en-    CQM 6357   2.420   3.012   4.028 -0.3154  0.8304  0.5620
  177en-    CQM 6358   2.403   3.017   3.887  0.5989  0.8580 -0.7492
  177en-    CQM 6359   2.491   3.096   3.811 -0.5875  0.5441 -0.1121
  177en-    CQM 6360   2.465   3.126   3.676  0.4487  0.1349 -0.2343
  177en-    CQM 6361   2.351   3.079   3.616  1.0382  0.8078 -0.1811
  177en-    CQM 6362   2.256   3.014   3.698  0.0430  0.2228  1.0447
  177en-    CQM 6363   2.278   2.977   3.831  0.1349 -0.3094 -0.2418
  177en-    CQM 6364   2.180   2.926   3.912 -0.3121  0.2875  0.1268
  177en-    HQM 6365   2.087   2.891   3.868  1.0553 -0.7885 -2.0420
  177en-    HQM 6366   2.159   3.007   3.651  0.1352  2.2555  0.4718
  177en-    HQM 6367   2.331   3.105   3.513 -2.0571 -1.3852 -0.2273
  177en-    HQM 6368   2.526   3.190   3.614  1.2274 -2.6579 -2.4562
  177en-    HQM 6369   2.584   3.125   3.857 -0.8913  1.7656 -0.2523
  177en-    HQM 6370   2.507   3.049   4.080  0.9062 -2.3838  0.9664
  177en-    CQM 6371   2.345   2.949   4.249  0.3704  0.3424  0.2504
  177en-    HQM 6372   2.441   2.988   4.281  0.5567  1.2122 -1.2851
  178en-    CQM 6373   2.386   2.529   4.294 -0.0369  0.4102  0.1582
  178en-    CQM 6374   2.274   2.524   4.386  0.5269  0.1459  0.3665
  178en-    CQM 6375   2.294   2.464   4.510  0.1264 -0.3542  0.1673
  178en-    CQM 6376   2.182   2.456   4.600 -1.0410 -0.1171  0.7334
  178en-    CQM 6377   2.207   2.401   4.726  0.1598 -0.6892 -0.5194
  178en-    CQM 6378   2.334   2.350   4.762  0.5313 -0.8408 -0.0506
  178en-    CQM 6379   2.437   2.369   4.676 -0.2934  0.5688 -0.3170
  178en-    CQM 6380   2.421   2.415   4.545 -0.3613 -0.7904 -0.1425
  178en-    CQM 6381   2.528   2.406   4.447 -0.6970  0.1026 -0.5759
  178en-    CQM 6382   2.507   2.466   4.323  0.8245  0.1601 -0.1394
  178en-    CQM 6383   2.366   2.594   4.172  1.0741  0.2358  0.0470
  178en-    HQM 6384   2.180   2.570   4.359 -0.1055 -0.4031  1.5807
  178en-    HQM 6385   2.092   2.511   4.571 -1.0556 -0.4011  0.2340
  178en-    HQM 6386   2.134   2.415   4.805 -1.7354  2.0226 -2.6782
  178en-    HQM 6387   2.350   2.299   4.856 -1.1892  1.4590  1.5377
  178en-    HQM 6388   2.535   2.331   4.704 -0.1857 -0.6869 -2.2450
  178en-    HQM 6389   2.626   2.366   4.470 -1.3142 -0.7152  0.6856
  178en-    HQM 6390   2.271   2.636   4.143  1.3179 -1.2392 -3.0587
  178en-    CQM 6391   2.463   2.580   4.074 -0.8863  0.0781 -0.3983
  178en-    CQM 6392   2.582   2.519   4.097 -0.0846  0.4979  0.4139
  178en-    CQM 6393   2.682   2.519   3.996 -0.1047  0.0695  0.1884
  178en-    CQM 6394   2.660   2.585   3.877  0.2156 -0.2325  0.2093
  178en-    CQM 6395   2.762   2.595   3.781  0.0362 -0.1985  0.4246
  178en-    CQM 6396   2.739   2.657   3.655 -0.4845  0.7689 -0.0908
  178en-    CQM 6397   2.619   2.726   3.638  0.2415 -0.3566 -0.1357
  178en-    CQM 6398   2.511   2.717   3.727  0.2648 -0.6214 -0.1483
  178en-    CQM 6399   2.536   2.651   3.850 -0.5577 -0.0989  0.1500
  178en-    CQM 6400   2.437   2.644   3.949 -0.3050  0.6559 -0.7672
  178en-    HQM 6401   2.344   2.697   3.933  0.1013  0.6523 -3.3641
  178en-    HQM 6402   2.419   2.773   3.713  0.2462 -0.6862 -0.2920
  178en-    HQM 6403   2.598   2.770   3.540 -0.8875  0.0588  0.2802
  178en-    HQM 6404   2.814   2.660   3.577  0.6007  1.3089  0.9688
  178en-    HQM 6405   2.860   2.558   3.809  0.1827 -1.2297 -1.4000
  178en-    HQM 6406   2.778   2.473   4.015 -0.7531 -1.5784 -0.4840
  178en-    CQM 6407   2.604   2.465   4.225  0.2930 -0.0411 -0.0857
  178en-    HQM 6408   2.701   2.423   4.251  0.0445  0.1259  1.1337
  179en-    CQM 6409   2.149   3.225   5.698 -0.2599 -0.3693  0.5941
  179en-    CQM 6410   2.045   3.166   5.775  0.1121 -0.1532  0.2067
  179en-    CQM 6411   2.066   3.145   5.913  0.6729  0.4452 -0.6540
  179en-    CQM 6412   1.973   3.073   5.987  0.4931 -0.3610 -0.3279
  179en-    CQM 6413   1.994   3.048   6.122 -0.4049  0.3899 -0.1047
  179en-    CQM 6414   2.113   3.086   6.186 -0.0868  0.5193 -0.0166
  179en-    CQM 6415   2.212   3.156   6.111 -0.0510  0.0741 -0.3191
  179en-    CQM 6416   2.190   3.185   5.975 -0.1460  0.0999  0.6488
  179en-    CQM 6417   2.289   3.240   5.894 -0.3631 -0.3336 -0.4597
  179en-    CQM 6418   2.270   3.261   5.756  0.8591  0.5240  0.0162
  179en-    CQM 6419   2.128   3.236   5.556  0.1792  0.5017 -0.2578
  179en-    HQM 6420   1.947   3.144   5.734 -1.0593  1.7121  1.9127
  179en-    HQM 6421   1.888   3.033   5.932  1.0921 -2.5435  0.2985
  179en-    HQM 6422   1.925   2.990   6.182 -0.3217  3.6185  3.3104
  179en-    HQM 6423   2.119   3.060   6.291  0.1758 -1.7127 -0.5618
  179en-    HQM 6424   2.308   3.183   6.155 -0.4141 -0.4320  0.7837
  179en-    HQM 6425   2.383   3.272   5.937 -0.4322  0.2482 -0.7218
  179en-    HQM 6426   2.033   3.207   5.512 -0.0160  0.6423  0.0618
  179en-    CQM 6427   2.234   3.284   5.482  0.3298 -0.4432 -0.6158
  179en-    CQM 6428   2.360   3.311   5.537  0.0146 -0.1200 -0.0101
  179en-    CQM 6429   2.459   3.361   5.453 -0.0788  0.1960  0.3117
  179en-    CQM 6430   2.439   3.369   5.313 -0.2150  0.9652 -0.3483
  179en-    CQM 6431   2.548   3.403   5.235 -0.0562 -0.2209  0.2544
  179en-    CQM 6432   2.531   3.421   5.095  0.0562  0.5829  0.4624
  179en-    CQM 6433   2.406   3.392   5.036 -0.6197 -0.3693  0.1361
  179en-    CQM 6434   2.296   3.351   5.112 -0.1584 -0.2028 -0.0487
  179en-    CQM 6435   2.314   3.338   5.254 -0.2638  0.3731 -0.3502
  179en-    CQM 6436   2.211   3.295   5.344 -0.2210 -0.0616  0.4715
  179en-    HQM 6437   2.116   3.272   5.296 -0.0784  1.2411 -0.4610
  179en-    HQM 6438   2.205   3.322   5.059  0.4406 -1.9072 -0.1805
  179en-    HQM 6439   2.392   3.388   4.929  0.7968  0.6360 -0.1019
  179en-    HQM 6440   2.614   3.447   5.030  0.0875 -3.2491 -1.1555
  179en-    HQM 6441   2.640   3.428   5.286 -1.0194  0.7254  1.5815
  179en-    HQM 6442   2.555   3.388   5.496  1.6173 -1.4244 -2.3413
  179en-    CQM 6443   2.379   3.294   5.674 -0.1158  0.1443  0.1379
  179en-    HQM 6444   2.475   3.321   5.716 -0.7113  3.3854 -0.4476
  180en-    CQM 6445   2.437   2.876   5.710  0.3048  1.0718  0.2971
  180en-    CQM 6446   2.333   2.879   5.810  0.0549  0.6621  0.5767
  180en-    CQM 6447   2.354   2.814   5.932 -0.0745  0.4647 -0.4308
  180en-    CQM 6448   2.258   2.824   6.039  0.2033 -0.4893 -0.2648
  180en-    CQM 6449   2.276   2.750   6.158  0.5183  0.1372  0.4377
  180en-    CQM 6450   2.396   2.682   6.176  0.5633  0.6651  0.0969
  180en-    CQM 6451   2.499   2.675   6.078 -0.0121  0.3157 -0.4512
  180en-    CQM 6452   2.478   2.740   5.950  0.3979  0.5503 -0.2519
  180en-    CQM 6453   2.568   2.724   5.846 -0.0119  0.1515  0.3902
  180en-    CQM 6454   2.553   2.798   5.731  0.7084 -0.1481  0.5523
  180en-    CQM 6455   2.421   2.950   5.593  0.5191 -0.1508  0.5940
  180en-    HQM 6456   2.253   2.950   5.793  0.0516  0.6807  0.6677
  180en-    HQM 6457   2.172   2.887   6.018 -0.5146 -0.6898  1.9223
  180en-    HQM 6458   2.199   2.759   6.234 -0.6970 -1.5895 -0.5710
  180en-    HQM 6459   2.408   2.639   6.275 -0.3312  0.6620  0.2129
  180en-    HQM 6460   2.590   2.621   6.100  0.2927  0.6392 -0.8905
  180en-    HQM 6461   2.655   2.659   5.850 -0.7442 -0.9046 -0.6936
  180en-    HQM 6462   2.332   3.012   5.585  1.3724  1.1635  1.1082
  180en-    CQM 6463   2.519   2.945   5.493 -0.5087  0.0268 -0.7338
  180en-    CQM 6464   2.642   2.877   5.518 -0.6037 -0.2381  0.4077
  180en-    CQM 6465   2.736   2.872   5.419 -0.3356  0.0398  0.2508
  180en-    CQM 6466   2.719   2.938   5.301  0.0176 -0.2433 -0.5051
  180en-    CQM 6467   2.817   2.938   5.203 -0.3086  0.0638  0.0035
  180en-    CQM 6468   2.802   3.003   5.084  0.4516 -0.0732  0.2194
  180en-    CQM 6469   2.679   3.070   5.058 -0.1641  0.0627 -0.5366
  180en-    CQM 6470   2.577   3.068   5.156  0.7906 -0.3777  0.1830
  180en-    CQM 6471   2.598   3.005   5.276 -0.4647  0.5657  0.2795
  180en-    CQM 6472   2.503   3.017   5.378  0.1227  0.0236 -0.5244
  180en-    HQM 6473   2.415   3.077   5.356 -0.0704 -1.2224 -3.3311
  180en-    HQM 6474   2.491   3.135   5.147 -0.0214 -1.0526  2.5593
  180en-    HQM 6475   2.660   3.126   4.967 -0.8646  1.4444  0.4395
  180en-    HQM 6476   2.883   3.004   5.012  0.4088 -1.8397  0.1121
  180en-    HQM 6477   2.914   2.894   5.223 -0.5588  0.2503  1.6838
  180en-    HQM 6478   2.824   2.819   5.453  0.7314  2.2907  1.1151
  180en-    CQM 6479   2.657   2.807   5.637 -0.4651 -0.1066  0.0861
  180en-    HQM 6480   2.749   2.756   5.664 -1.1539 -1.0411  0.6577
  181en-    CQM 6481   2.030   2.656   0.091  0.6455  0.1810 -0.0956
  181en-    CQM 6482   1.925   2.603   0.172 -0.5892  0.0703 -0.0166
  181en-    CQM 6483   1.948   2.594   0.307 -0.3868 -0.2076 -0.6005
  181en-    CQM 6484   1.854   2.529   0.396  0.8123 -0.6350  0.0910
  181en-    CQM 6485   1.886   2.505   0.532 -0.2915 -0.6074  0.4496
  181en-    CQM 6486   2.004   2.555   0.586  0.5799 -0.8146 -0.1317
  181en-    CQM 6487   2.097   2.623   0.505  0.9999  0.4151  0.3512
  181en-    CQM 6488   2.074   2.637   0.366  0.0859  0.0155 -1.1445
  181en-    CQM 6489   2.174   2.688   0.288  0.4633 -0.2061 -0.3269
  181en-    CQM 6490   2.151   2.696   0.153  0.9297  0.2025 -0.1507
  181en-    CQM 6491   2.018   2.647  -0.049 -0.0035  0.1945 -0.0599
  181en-    HQM 6492   1.841   2.564   0.115  0.8202 -0.5835 -1.7018
  181en-    HQM 6493   1.762   2.492   0.352 -0.3946 -0.3399  2.2693
  181en-    HQM 6494   1.814   2.447   0.588 -0.5775  0.0488  0.7749
  181en-    HQM 6495   2.021   2.543   0.692  2.5271 -0.8595 -0.4271
  181en-    HQM 6496   2.195   2.651   0.543  1.3782 -0.1254 -0.2127
  181en-    HQM 6497   2.270   2.706   0.335 -0.3632 -1.3292  1.8871
  181en-    HQM 6498   1.930   2.606  -0.098  1.4725 -2.5952 -0.4225
  181en-    CQM 6499   2.121   2.707  -0.128 -0.2729 -0.0591 -0.3972
  181en-    CQM 6500   2.243   2.743  -0.072 -0.0115 -0.2839  0.0558
  181en-    CQM 6501   2.347   2.790  -0.149  0.1800  0.2909  0.1208
  181en-    CQM 6502   2.327   2.808  -0.292  0.1982  0.5426 -0.2840
  181en-    CQM 6503   2.430   2.847  -0.373 -0.5259 -0.6141 -0.3593
  181en-    CQM 6504   2.410   2.873  -0.509 -0.3393  0.2740 -0.0927
  181en-    CQM 6505   2.282   2.844  -0.568  0.1406 -0.5644  0.4947
  181en-    CQM 6506   2.183   2.786  -0.488 -0.3904  0.3209  0.3086
  181en-    CQM 6507   2.201   2.766  -0.348 -0.3918  0.2697  0.3032
  181en-    CQM 6508   2.104   2.716  -0.267  0.1855  0.0156 -0.5741
  181en-    HQM 6509   2.010   2.685  -0.310  0.1155  0.4225 -0.7213
  181en-    HQM 6510   2.093   2.744  -0.531  1.5699 -2.7599 -1.0158
  181en-    HQM 6511   2.273   2.877  -0.671  0.6583 -0.6252  0.4256
  181en-    HQM 6512   2.485   2.921  -0.572 -1.0302  1.3527 -0.0962
  181en-    HQM 6513   2.523   2.877  -0.326 -1.2719  0.1588  0.6697
  181en-    HQM 6514   2.430   2.847  -0.109  1.5671 -0.7179 -1.2457
  181en-    CQM 6515   2.255   2.732   0.067  0.1259 -0.3411 -0.3303
  181en-    HQM 6516   2.351   2.752   0.113 -1.5737  0.2384  3.1002
  182en-    CQM 6517   2.322   2.309   0.102  0.5804 -0.6725  0.1917
  182en-    CQM 6518   2.223   2.319   0.200  0.3655 -0.0709  0.8055
  182en-    CQM 6519   2.232   2.252   0.319 -0.0473 -0.5832  0.2255
  182en-    CQM 6520   2.147   2.271   0.432 -0.2594  0.7323 -0.0016
  182en-    CQM 6521   2.167   2.190   0.550 -0.1149  0.9071 -0.5521
  182en-    CQM 6522   2.282   2.113   0.565 -0.7751 -0.0083 -0.1070
  182en-    CQM 6523   2.370   2.105   0.458  0.8207  0.0670  0.0809
  182en-    CQM 6524   2.351   2.172   0.340 -0.0113  0.7807 -0.1189
  182en-    CQM 6525   2.449   2.158   0.240  0.1059  0.7965  0.6933
  182en-    CQM 6526   2.439   2.229   0.121 -0.0519  0.2949 -0.1100
  182en-    CQM 6527   2.305   2.384  -0.014  0.5864 -0.3551  0.2663
  182en-    HQM 6528   2.141   2.388   0.178  1.3606  0.9886  0.3612
  182en-    HQM 6529   2.063   2.340   0.428  0.3258  1.4284 -0.3170
  182en-    HQM 6530   2.091   2.196   0.628 -0.4929  0.9367 -0.9157
  182en-    HQM 6531   2.305   2.057   0.655 -1.5397 -1.2960 -0.6935
  182en-    HQM 6532   2.458   2.043   0.465  0.9652 -0.0476 -2.3895
  182en-    HQM 6533   2.535   2.095   0.261 -0.5379  0.1580  1.4065
  182en-    HQM 6534   2.214   2.442  -0.026  1.2214  0.2426 -1.9611
  182en-    CQM 6535   2.403   2.383  -0.112  0.4706 -0.3079 -0.0363
  182en-    CQM 6536   2.517   2.311  -0.095  0.1103 -0.9339 -0.5570
  182en-    CQM 6537   2.609   2.299  -0.198 -0.3452 -1.3024  0.8722
  182en-    CQM 6538   2.590   2.368  -0.320 -0.1666 -0.1688  0.5737
  182en-    CQM 6539   2.682   2.359  -0.424 -0.3944  0.6556  0.6035
  182en-    CQM 6540   2.654   2.422  -0.546  0.0745 -0.0389  0.2265
  182en-    CQM 6541   2.541   2.502  -0.562 -0.0051 -0.1832  0.3963
  182en-    CQM 6542   2.448   2.507  -0.458  0.2094  0.0864  0.7773
  182en-    CQM 6543   2.478   2.448  -0.333  0.5771  0.4816  0.3253
  182en-    CQM 6544   2.384   2.453  -0.232  0.0560  0.9637  0.4276
  182en-    HQM 6545   2.292   2.507  -0.254  1.6889  2.4806 -3.1954
  182en-    HQM 6546   2.357   2.566  -0.466 -0.0660 -0.4625 -0.0708
  182en-    HQM 6547   2.518   2.543  -0.660 -0.6598 -0.2821  0.5038
  182en-    HQM 6548   2.717   2.411  -0.634 -1.1331  0.2097 -0.6861
  182en-    HQM 6549   2.770   2.297  -0.410 -2.4930 -2.3139  1.1966
  182en-    HQM 6550   2.696   2.239  -0.175 -0.1769 -1.1058  0.7464
  182en-    CQM 6551   2.532   2.226   0.016 -0.0115 -0.1513  0.9023
  182en-    HQM 6552   2.623   2.167   0.022  1.1376  1.7669  3.0681
  183en-    CQM 6553   2.070   2.947   1.507 -0.6331  0.0198  0.1894
  183en-    CQM 6554   1.976   2.892   1.591  0.5259  0.1573 -0.5982
  183en-    CQM 6555   2.004   2.884   1.728  0.4971 -0.2431  0.2185
  183en-    CQM 6556   1.906   2.829   1.813  0.2180 -0.6904 -0.4154
  183en-    CQM 6557   1.929   2.811   1.953 -0.8767 -0.3463 -0.1578
  183en-    CQM 6558   2.058   2.849   2.000 -0.6950  0.1991 -0.1958
  183en-    CQM 6559   2.160   2.894   1.914  0.2505 -0.1312  0.3139
  183en-    CQM 6560   2.127   2.924   1.780 -0.1080  0.4238  0.4441
  183en-    CQM 6561   2.225   2.971   1.697  0.5661 -0.2315  0.0681
  183en-    CQM 6562   2.198   2.990   1.561  0.4220  0.3053  0.2532
  183en-    CQM 6563   2.048   2.975   1.369 -0.2235  0.8036  0.2844
  183en-    HQM 6564   1.876   2.872   1.553 -0.5486 -1.1458  2.7044
  183en-    HQM 6565   1.808   2.817   1.767  0.6820 -0.0842 -1.5945
  183en-    HQM 6566   1.864   2.763   2.026 -0.7848  0.6428  0.5865
  183en-    HQM 6567   2.071   2.830   2.106 -1.9393  1.6725  0.2353
  183en-    HQM 6568   2.259   2.923   1.950  1.7659  1.0091 -4.5224
  183en-    HQM 6569   2.323   3.002   1.732  0.1175  0.7467  0.4999
  183en-    HQM 6570   1.952   2.959   1.320  0.5203  3.4546 -2.1085
  183en-    CQM 6571   2.151   3.026   1.288  0.6026 -0.2124 -0.3941
  183en-    CQM 6572   2.275   3.062   1.346  0.3646 -0.3661 -0.8331
  183en-    CQM 6573   2.381   3.110   1.270 -0.2779 -0.0444 -0.5955
  183en-    CQM 6574   2.371   3.121   1.130 -0.4446 -0.5656 -0.0369
  183en-    CQM 6575   2.477   3.159   1.046  0.8210 -0.2562 -0.5133
  183en-    CQM 6576   2.456   3.167   0.909 -0.7604 -0.0142  0.1995
  183en-    CQM 6577   2.328   3.141   0.849 -0.0626  0.3718  0.5289
  183en-    CQM 6578   2.221   3.111   0.932 -1.2837  0.2248  0.1206
  183en-    CQM 6579   2.248   3.086   1.073  0.1945 -0.3377  0.2585
  183en-    CQM 6580   2.140   3.040   1.146 -0.4480 -0.1167 -0.5250
  183en-    HQM 6581   2.047   3.022   1.094  0.1666  1.4081 -2.2140
  183en-    HQM 6582   2.122   3.105   0.888 -0.2619 -0.4869 -2.2086
  183en-    HQM 6583   2.313   3.172   0.746  0.2787 -1.4541 -0.0882
  183en-    HQM 6584   2.535   3.221   0.858  1.0685 -0.5949  2.3182
  183en-    HQM 6585   2.571   3.194   1.087  0.3898  0.6712 -0.2990
  183en-    HQM 6586   2.466   3.148   1.326  0.8800  1.3051 -3.1890
  183en-    CQM 6587   2.295   3.050   1.485 -0.1083  0.2784 -0.2997
  183en-    HQM 6588   2.390   3.073   1.533 -1.3168 -1.2781  3.0049
  184en-    CQM 6589   2.360   2.644   1.527 -0.2036  0.0326 -0.2387
  184en-    CQM 6590   2.258   2.638   1.624  0.1204  0.2813  0.1058
  184en-    CQM 6591   2.273   2.562   1.740  0.0856 -0.1752 -0.0475
  184en-    CQM 6592   2.170   2.554   1.842 -0.4464 -0.1827 -0.1289
  184en-    CQM 6593   2.187   2.481   1.963  0.9979  0.9842  0.2021
  184en-    CQM 6594   2.314   2.419   1.985 -0.3948 -0.9213 -0.0493
  184en-    CQM 6595   2.413   2.423   1.880  0.0126  0.2676 -0.0527
  184en-    CQM 6596   2.390   2.496   1.763  0.0553 -0.0112  0.0120
  184en-    CQM 6597   2.495   2.498   1.674  0.2959 -0.0253  0.1800
  184en-    CQM 6598   2.474   2.559   1.549 -0.0094 -0.1795  0.7878
  184en-    CQM 6599   2.350   2.713   1.410  1.0151  0.5288 -0.2951
  184en-    HQM 6600   2.164   2.691   1.617 -0.0904  0.0347  1.0931
  184en-    HQM 6601   2.080   2.610   1.819 -1.7880 -2.1648  0.1928
  184en-    HQM 6602   2.102   2.471   2.029  1.9005 -1.9794  0.9939
  184en-    HQM 6603   2.324   2.354   2.071 -1.0464  0.9917  1.5207
  184en-    HQM 6604   2.508   2.376   1.905  0.9314  1.7226 -0.7246
  184en-    HQM 6605   2.587   2.444   1.693  0.7403 -0.1952 -2.2931
  184en-    HQM 6606   2.262   2.774   1.391  1.5310  0.6592 -2.4291
  184en-    CQM 6607   2.445   2.700   1.304  1.0455  0.4247 -0.6150
  184en-    CQM 6608   2.559   2.624   1.329 -0.1952 -0.5617 -0.9094
  184en-    CQM 6609   2.662   2.624   1.236 -0.0449  0.5109  0.0096
  184en-    CQM 6610   2.649   2.689   1.110 -0.1986 -0.0261  1.1668
  184en-    CQM 6611   2.743   2.682   1.004  0.5182  0.0558 -0.2371
  184en-    CQM 6612   2.719   2.750   0.881  0.4194 -0.5340  0.1866
  184en-    CQM 6613   2.609   2.829   0.868  0.1340  0.6766  0.1755
  184en-    CQM 6614   2.505   2.833   0.961  0.2087  0.5599  0.9709
  184en-    CQM 6615   2.527   2.765   1.084  0.5320 -0.4569  0.3484
  184en-    CQM 6616   2.429   2.771   1.185 -1.0700 -0.3582  0.0497
  184en-    HQM 6617   2.337   2.826   1.168 -2.5940 -3.0043 -0.4504
  184en-    HQM 6618   2.417   2.893   0.940 -0.5570 -1.3266 -1.5431
  184en-    HQM 6619   2.599   2.888   0.777 -1.0818  0.0350 -0.1062
  184en-    HQM 6620   2.797   2.750   0.806  0.0784 -0.2927 -0.1637
  184en-    HQM 6621   2.833   2.623   1.018 -0.3995 -1.0735  0.9670
  184en-    HQM 6622   2.747   2.558   1.254 -0.7482 -0.2464  0.6323
  184en-    CQM 6623   2.570   2.556   1.450  0.5801  0.3255 -0.3869
  184en-    HQM 6624   2.665   2.504   1.461  0.4820  0.2348  0.0249
  185en-    CQM 6625   2.122   3.267   2.886  0.0031  0.1805  0.4047
  185en-    CQM 6626   2.014   3.233   2.970  0.1402  0.2480  0.3894
  185en-    CQM 6627   2.026   3.226   3.106  0.7956 -0.3910 -0.0740
  185en-    CQM 6628   1.926   3.177   3.189  0.4929 -0.4353 -0.3308
  185en-    CQM 6629   1.953   3.150   3.321 -0.1761 -0.0760  0.2912
  185en-    CQM 6630   2.077   3.185   3.376  0.6733  0.1764 -0.2103
  185en-    CQM 6631   2.172   3.255   3.298 -0.2389 -0.2983 -0.4140
  185en-    CQM 6632   2.150   3.274   3.163 -0.0211  0.1427  0.1036
  185en-    CQM 6633   2.255   3.317   3.081 -0.3784 -0.2641  0.2322
  185en-    CQM 6634   2.246   3.309   2.942 -0.3447  0.6737  0.8212
  185en-    CQM 6635   2.105   3.276   2.749  0.7784 -0.3454  0.9706
  185en-    HQM 6636   1.921   3.198   2.923  1.4374  1.1264 -3.0201
  185en-    HQM 6637   1.828   3.148   3.152  0.5766  0.4465 -1.2805
  185en-    HQM 6638   1.880   3.099   3.383 -0.9112 -0.1408 -0.6109
  185en-    HQM 6639   2.095   3.163   3.481  1.1180  0.8405 -0.1463
  185en-    HQM 6640   2.268   3.294   3.330 -0.9113  2.1088 -1.2215
  185en-    HQM 6641   2.350   3.342   3.126  1.1843  0.5379 -3.3039
  185en-    HQM 6642   2.007   3.257   2.705  1.0819  0.0206  0.1178
  185en-    CQM 6643   2.205   3.330   2.664 -0.1340  0.7379 -0.0301
  185en-    CQM 6644   2.325   3.374   2.720  0.5662 -0.5352 -0.0137
  185en-    CQM 6645   2.429   3.425   2.637  0.3293  0.3627 -0.4039
  185en-    CQM 6646   2.401   3.438   2.501 -0.3072  0.3591  0.2598
  185en-    CQM 6647   2.500   3.489   2.420 -0.0376 -0.3868 -0.0656
  185en-    CQM 6648   2.480   3.493   2.282 -0.3744 -0.8716 -0.6057
  185en-    CQM 6649   2.363   3.451   2.222  0.4403  0.1445  0.0238
  185en-    CQM 6650   2.263   3.404   2.308  0.3120  0.3115  0.2521
  185en-    CQM 6651   2.284   3.390   2.447 -0.4135  0.9428 -0.4495
  185en-    CQM 6652   2.186   3.331   2.523 -0.5598 -0.4692 -0.3031
  185en-    HQM 6653   2.091   3.304   2.478 -0.2242 -0.4108 -1.0610
  185en-    HQM 6654   2.170   3.365   2.268  1.7826 -1.4992 -1.4524
  185en-    HQM 6655   2.347   3.467   2.115 -1.2570  1.9091  0.5070
  185en-    HQM 6656   2.554   3.546   2.222 -0.4784 -0.8389 -0.7040
  185en-    HQM 6657   2.591   3.522   2.471 -0.3035 -2.4820  1.8933
  185en-    HQM 6658   2.518   3.462   2.687 -1.3930  1.5978  1.8600
  185en-    CQM 6659   2.350   3.360   2.855 -0.5189  0.3289  1.1757
  185en-    HQM 6660   2.446   3.390   2.896 -0.6994  0.6613  1.3549
  186en-    CQM 6661   2.427   2.949   2.918  0.0030 -0.5474  0.0834
  186en-    CQM 6662   2.320   2.939   3.009  0.0568  0.1099  0.2320
  186en-    CQM 6663   2.337   2.866   3.126  0.1129 -0.0459 -0.9935
  186en-    CQM 6664   2.239   2.862   3.232  0.2257  0.1983 -0.0714
  186en-    CQM 6665   2.261   2.803   3.355 -0.3758  0.1372 -0.0862
  186en-    CQM 6666   2.386   2.740   3.372 -0.6038 -0.2448  0.0140
  186en-    CQM 6667   2.485   2.743   3.273 -0.5386 -0.1250  0.2746
  186en-    CQM 6668   2.463   2.809   3.153  0.0200  0.4608 -0.0937
  186en-    CQM 6669   2.566   2.809   3.061  0.3674  0.3010 -0.4069
  186en-    CQM 6670   2.548   2.876   2.942 -0.4070 -0.6911  0.4124
  186en-    CQM 6671   2.414   3.023   2.800 -0.0625  0.4561 -0.4874
  186en-    HQM 6672   2.226   2.993   2.996 -0.7268 -0.5768  2.7621
  186en-    HQM 6673   2.142   2.908   3.218 -0.7147 -1.1599  1.7843
  186en-    HQM 6674   2.189   2.803   3.436 -0.9202 -3.5313 -0.5036
  186en-    HQM 6675   2.398   2.684   3.464  1.4648  0.7047  0.3424
  186en-    HQM 6676   2.573   2.681   3.285  0.8787  1.5206 -1.3097
  186en-    HQM 6677   2.658   2.760   3.090  0.8670  1.4124 -0.0870
  186en-    HQM 6678   2.320   3.078   2.792 -1.5378 -1.7363  0.9548
  186en-    CQM 6679   2.508   3.024   2.696 -0.8385 -0.0784  0.4508
  186en-    CQM 6680   2.624   2.952   2.727 -0.1997 -0.7729 -0.4705
  186en-    CQM 6681   2.724   2.943   2.623 -0.5327 -0.2204  0.1317
  186en-    CQM 6682   2.706   3.010   2.501  0.0413  0.8784 -0.3604
  186en-    CQM 6683   2.805   3.003   2.399  0.4594  0.6414 -0.1791
  186en-    CQM 6684   2.792   3.086   2.285 -0.6308  0.8880 -0.4220
  186en-    CQM 6685   2.681   3.161   2.268  0.1466 -0.2649  0.4626
  186en-    CQM 6686   2.578   3.162   2.361  0.2189  0.2692  0.4127
  186en-    CQM 6687   2.596   3.093   2.481  0.4952 -0.4532 -0.9434
  186en-    CQM 6688   2.493   3.092   2.574  0.4265  0.3404  0.3093
  186en-    HQM 6689   2.400   3.149   2.570 -1.1888 -2.1985  0.5921
  186en-    HQM 6690   2.497   3.230   2.337  1.5170  1.1865 -1.5737
  186en-    HQM 6691   2.657   3.224   2.183 -1.8447  0.7048  1.7189
  186en-    HQM 6692   2.871   3.094   2.211 -0.0398  1.9801  0.3181
  186en-    HQM 6693   2.891   2.938   2.412  1.6637  2.5013  1.5580
  186en-    HQM 6694   2.815   2.884   2.631 -0.7654 -0.5830  0.1320
  186en-    CQM 6695   2.641   2.876   2.843 -0.5780 -0.4128 -0.2314
  186en-    HQM 6696   2.738   2.829   2.851  0.5971  1.7017 -1.5851
  187en-    CQM 6697   2.193   3.619   4.304  0.7499 -0.2848  0.3403
  187en-    CQM 6698   2.085   3.566   4.379 -0.0598  0.6115  0.3156
  187en-    CQM 6699   2.104   3.549   4.515 -0.3681 -0.7849  0.0388
  187en-    CQM 6700   1.997   3.498   4.589 -0.1533 -0.0938  0.8243
  187en-    CQM 6701   2.015   3.491   4.731 -0.1320 -0.7370  0.4751
  187en-    CQM 6702   2.129   3.534   4.795 -0.1549 -0.5286 -0.3769
  187en-    CQM 6703   2.244   3.567   4.719  0.1127 -0.5937 -0.0926
  187en-    CQM 6704   2.230   3.582   4.578 -0.0252 -0.3534  0.5013
  187en-    CQM 6705   2.329   3.636   4.504  0.6796  0.0606 -0.0006
  187en-    CQM 6706   2.310   3.657   4.364 -0.5398 -0.5210  0.4507
  187en-    CQM 6707   2.184   3.630   4.165  0.3798 -0.2220 -0.4663
  187en-    HQM 6708   1.995   3.534   4.328 -1.6019  0.3783  3.0444
  187en-    HQM 6709   1.908   3.460   4.540  0.7608 -2.0262  0.5938
  187en-    HQM 6710   1.935   3.469   4.802  1.2911 -3.8443  1.1975
  187en-    HQM 6711   2.135   3.518   4.903  0.3103  0.8645 -0.1847
  187en-    HQM 6712   2.332   3.596   4.775 -1.8444  2.8430  1.3325
  187en-    HQM 6713   2.415   3.677   4.557  2.6387  0.3393 -3.2443
  187en-    HQM 6714   2.096   3.590   4.117 -1.9555  0.9750  2.6146
  187en-    CQM 6715   2.287   3.686   4.089 -0.1882  0.7258  0.6394
  187en-    CQM 6716   2.402   3.738   4.153  0.4199  0.1575  0.0383
  187en-    CQM 6717   2.499   3.782   4.064 -0.7562  0.3920  0.8389
  187en-    CQM 6718   2.474   3.787   3.926  0.0362  0.3804 -0.6260
  187en-    CQM 6719   2.572   3.841   3.844  0.9258  0.3258  0.1951
  187en-    CQM 6720   2.553   3.837   3.706  0.0249 -0.0129 -0.3916
  187en-    CQM 6721   2.428   3.799   3.648  0.4934 -0.2703  0.3664
  187en-    CQM 6722   2.326   3.748   3.730 -0.0895 -0.0096  0.1955
  187en-    CQM 6723   2.351   3.748   3.866  0.9133  0.8847 -0.6309
  187en-    CQM 6724   2.254   3.699   3.955 -0.0438 -0.7706 -0.2798
  187en-    HQM 6725   2.163   3.645   3.929  0.2765 -1.4780  0.0475
  187en-    HQM 6726   2.239   3.703   3.682 -3.0588  1.4530  3.9067
  187en-    HQM 6727   2.415   3.798   3.540  3.8715  0.2627 -0.0902
  187en-    HQM 6728   2.630   3.884   3.646 -0.3745 -0.2315 -1.0797
  187en-    HQM 6729   2.670   3.874   3.880 -0.1368  1.8299  1.7950
  187en-    HQM 6730   2.597   3.818   4.093 -0.2900 -0.7361  0.7099
  187en-    CQM 6731   2.415   3.719   4.293 -0.1436 -0.2386  0.4399
  187en-    HQM 6732   2.503   3.752   4.347  1.5116  0.2389 -2.4466
  188en-    CQM 6733   2.454   3.319   4.318 -0.5617  0.2887  0.1103
  188en-    CQM 6734   2.354   3.318   4.421 -0.0041  0.4193  0.3424
  188en-    CQM 6735   2.373   3.246   4.542  0.1292 -0.9859 -0.1216
  188en-    CQM 6736   2.274   3.237   4.647 -0.0017 -0.7841 -0.0062
  188en-    CQM 6737   2.308   3.152   4.759 -0.4516 -0.5737 -0.4687
  188en-    CQM 6738   2.424   3.088   4.775  0.1439 -0.0968  0.4782
  188en-    CQM 6739   2.513   3.092   4.671  0.5828 -0.5069  0.0464
  188en-    CQM 6740   2.492   3.175   4.560 -0.7003  0.1181  0.6183
  188en-    CQM 6741   2.589   3.169   4.457  0.0466 -0.3494  0.5372
  188en-    CQM 6742   2.574   3.244   4.337 -0.3015 -0.6584 -0.1666
  188en-    CQM 6743   2.442   3.376   4.191 -0.3485  0.1315  0.5817
  188en-    HQM 6744   2.262   3.373   4.401  0.2541  0.8494  0.3411
  188en-    HQM 6745   2.187   3.302   4.654 -0.8679 -1.9264 -0.1120
  188en-    HQM 6746   2.232   3.136   4.836 -1.8095  0.7703 -1.4976
  188en-    HQM 6747   2.442   3.023   4.860  1.0750  1.0875  1.2041
  188en-    HQM 6748   2.593   3.019   4.680  1.2372  0.1095 -0.6719
  188en-    HQM 6749   2.680   3.114   4.479 -0.2724 -0.7829  0.7795
  188en-    HQM 6750   2.354   3.439   4.180 -0.6637 -0.2346  1.0227
  188en-    CQM 6751   2.534   3.359   4.091  0.2671  0.1863 -0.1869
  188en-    CQM 6752   2.648   3.279   4.116 -0.4540 -0.0579  0.8982
  188en-    CQM 6753   2.745   3.267   4.014 -0.3768  1.1571 -0.0067
  188en-    CQM 6754   2.731   3.334   3.891  0.0081  0.2319  0.1630
  188en-    CQM 6755   2.839   3.340   3.802  0.3862  0.4076  0.3219
  188en-    CQM 6756   2.822   3.396   3.681  0.0084 -0.0428 -0.0780
  188en-    CQM 6757   2.713   3.475   3.651  0.2420 -0.2199  0.3554
  188en-    CQM 6758   2.608   3.487   3.748 -0.2590  0.2825  0.1612
  188en-    CQM 6759   2.620   3.418   3.871 -0.1403  0.3276  0.1288
  188en-    CQM 6760   2.518   3.421   3.968  0.3272 -1.0646  0.3415
  188en-    HQM 6761   2.421   3.469   3.953  0.1823 -1.4706 -0.0140
  188en-    HQM 6762   2.520   3.547   3.727 -0.3295  0.6695  1.4993
  188en-    HQM 6763   2.704   3.530   3.557 -2.3228  1.4669  1.5384
  188en-    HQM 6764   2.901   3.387   3.607  0.0184  0.5098 -0.1343
  188en-    HQM 6765   2.929   3.283   3.825  0.0203 -0.1346  0.4138
  188en-    HQM 6766   2.830   3.200   4.027 -1.2893 -0.0562 -0.1374
  188en-    CQM 6767   2.675   3.236   4.242 -0.3698 -0.5679  0.4805
  188en-    HQM 6768   2.755   3.165   4.262  0.2075  0.2837  1.2473
  189en-    CQM 6769   1.870   0.137   5.705  0.8971  0.2209  0.1008
  189en-    CQM 6770   1.765   0.089   5.790 -0.2088 -0.6250 -0.1058
  189en-    CQM 6771   1.788   0.079   5.928 -0.5916  0.4166 -0.1831
  189en-    CQM 6772   1.687   0.027   6.009  0.0076 -0.1945 -0.0427
  189en-    CQM 6773   1.704   0.007   6.142  0.4068  0.7039  0.5962
  189en-    CQM 6774   1.828   0.037   6.197  0.8424  1.4216  0.4328
  189en-    CQM 6775   1.928   0.105   6.125  0.3423  0.1270  0.4974
  189en-    CQM 6776   1.913   0.116   5.983 -0.6736 -0.6079  0.3187
  189en-    CQM 6777   2.011   0.172   5.899 -0.6765 -0.6136 -0.1196
  189en-    CQM 6778   1.986   0.182   5.759 -0.1171 -0.3199 -0.2047
  189en-    CQM 6779   1.848   0.151   5.564  0.4316  0.2206  0.0106
  189en-    HQM 6780   1.669   0.059   5.748 -0.6975 -0.5449  0.9349
  189en-    HQM 6781   1.594  -0.007   5.964  1.2848 -2.3929 -1.1087
  189en-    HQM 6782   1.618  -0.013   6.205 -1.7876  5.9966 -0.4388
  189en-    HQM 6783   1.840   0.031   6.305  0.4566 -0.5644  0.3979
  189en-    HQM 6784   2.022   0.139   6.166 -1.3694  2.7960  2.3218
  189en-    HQM 6785   2.106   0.207   5.937 -2.0988  4.1696 -0.6688
  189en-    HQM 6786   1.751   0.115   5.530  0.6372 -1.0740  0.7535
  189en-    CQM 6787   1.947   0.203   5.479 -0.1539  0.4151  0.1862
  189en-    CQM 6788   2.064   0.247   5.541  0.0842 -0.6859  0.1739
  189en-    CQM 6789   2.170   0.300   5.461  0.2098  0.3857  0.4826
  189en-    CQM 6790   2.151   0.311   5.322 -0.2072 -0.6846 -0.3721
  189en-    CQM 6791   2.256   0.361   5.239 -0.0093  0.2493 -0.9198
  189en-    CQM 6792   2.237   0.374   5.101  0.0939  0.1270  0.4600
  189en-    CQM 6793   2.126   0.314   5.039 -1.0534 -0.1947  0.7388
  189en-    CQM 6794   2.027   0.270   5.122 -0.4689  0.3646  0.7015
  189en-    CQM 6795   2.036   0.258   5.261  0.2087 -0.0064  0.3726
  189en-    CQM 6796   1.926   0.211   5.336  0.3700 -0.6883 -0.2294
  189en-    HQM 6797   1.832   0.184   5.288  0.5141 -0.6782 -0.5182
  189en-    HQM 6798   1.936   0.235   5.075 -0.4866 -0.2292  1.1723
  189en-    HQM 6799   2.113   0.321   4.931 -1.5295  1.9404  0.9119
  189en-    HQM 6800   2.316   0.418   5.041 -1.2199 -0.9403 -2.1431
  189en-    HQM 6801   2.344   0.403   5.285 -0.6576 -0.2461  0.8039
  189en-    HQM 6802   2.252   0.353   5.508  0.1902 -0.0826  1.0457
  189en-    CQM 6803   2.086   0.237   5.678  0.1063 -0.4695 -0.5172
  189en-    HQM 6804   2.184   0.254   5.720 -0.5108  0.6720  0.5094
  190en-    CQM 6805   2.505   3.634   5.708 -0.7263  0.2230 -0.5802
  190en-    CQM 6806   2.405   3.642   5.805 -0.0885  0.3747  0.4852
  190en-    CQM 6807   2.419   3.576   5.930 -0.0784  0.1991  0.0667
  190en-    CQM 6808   2.318   3.586   6.031 -0.7590 -0.0521  1.0282
  190en-    CQM 6809   2.340   3.532   6.157 -0.3190 -0.0929  0.3757
  190en-    CQM 6810   2.457   3.466   6.186  0.0231 -0.2511  0.0170
  190en-    CQM 6811   2.556   3.452   6.090  0.5635  0.0363  0.4440
  190en-    CQM 6812   2.539   3.511   5.962 -0.2371 -0.4219 -0.1342
  190en-    CQM 6813   2.641   3.506   5.867  0.2287 -0.3495  0.1958
  190en-    CQM 6814   2.623   3.560   5.737  0.2667  0.3447  0.7654
  190en-    CQM 6815   2.491   3.696   5.588 -0.3255  0.0615  0.2453
  190en-    HQM 6816   2.317   3.702   5.782 -0.8552 -1.2363 -0.8840
  190en-    HQM 6817   2.228   3.641   6.005 -1.2660 -1.7031 -0.8597
  190en-    HQM 6818   2.258   3.532   6.228 -1.5616 -0.3534 -1.0409
  190en-    HQM 6819   2.462   3.427   6.287 -1.7421  3.8930  1.7677
  190en-    HQM 6820   2.652   3.412   6.119  1.4264  1.8840  0.2282
  190en-    HQM 6821   2.729   3.447   5.889  0.4613  0.0600  0.3796
  190en-    HQM 6822   2.400   3.750   5.565 -0.4321  0.7196  2.1561
  190en-    CQM 6823   2.595   3.684   5.497  0.2471 -0.4402 -0.5960
  190en-    CQM 6824   2.717   3.625   5.523 -0.4255 -0.1782 -0.3245
  190en-    CQM 6825   2.819   3.627   5.431 -0.6901 -0.5095 -0.0365
  190en-    CQM 6826   2.797   3.689   5.304 -0.1845  0.1002 -0.3834
  190en-    CQM 6827   2.901   3.697   5.212  0.2188 -0.3359  0.6237
  190en-    CQM 6828   2.885   3.765   5.092  0.3395 -0.2791  0.0391
  190en-    CQM 6829   2.761   3.830   5.068  0.1658 -0.3005  0.0833
  190en-    CQM 6830   2.654   3.822   5.159  0.0516  0.1340  0.8363
  190en-    CQM 6831   2.677   3.756   5.278 -0.7790  0.6118  0.1449
  190en-    CQM 6832   2.578   3.755   5.379 -0.0065 -0.1632  0.2650
  190en-    HQM 6833   2.484   3.805   5.358  0.1275 -0.0153  0.0229
  190en-    HQM 6834   2.556   3.866   5.146  0.1169 -0.2036 -0.9193
  190en-    HQM 6835   2.749   3.869   4.968  1.9532  1.0628  0.3794
  190en-    HQM 6836   2.965   3.773   5.019 -0.9641 -2.2851 -1.6459
  190en-    HQM 6837   2.997   3.656   5.242  0.5943 -0.1321 -0.2722
  190en-    HQM 6838   2.916   3.580   5.442  0.9912  2.6410 -0.5472
  190en-    CQM 6839   2.732   3.565   5.646 -0.3380  0.7595 -1.2445
  190en-    HQM 6840   2.819   3.505   5.672 -0.9205 -0.6379 -2.4306
  191en-    CQM 6841   2.128   3.420   0.109  0.5141  0.9550 -0.6577
  191en-    CQM 6842   2.032   3.347   0.187  0.5706 -0.1028  0.0192
  191en-    CQM 6843   2.045   3.340   0.328 -0.0626  0.0970 -0.2850
  191en-    CQM 6844   1.943   3.280   0.404 -0.0375  0.1227 -1.0127
  191en-    CQM 6845   1.970   3.266   0.542  0.1768  0.7086  0.1791
  191en-    CQM 6846   2.093   3.302   0.600  1.0519 -0.3479 -0.1064
  191en-    CQM 6847   2.182   3.372   0.523 -1.2083  0.2562  0.0243
  191en-    CQM 6848   2.166   3.389   0.386  0.4612 -0.0186  0.1753
  191en-    CQM 6849   2.261   3.462   0.309 -0.4966  0.7281  0.5679
  191en-    CQM 6850   2.245   3.467   0.169  0.4999 -0.3536  1.2276
  191en-    CQM 6851   2.116   3.418  -0.035  0.0414  0.1511 -0.2495
  191en-    HQM 6852   1.941   3.314   0.138  0.7135  1.5408 -1.4063
  191en-    HQM 6853   1.848   3.252   0.359  0.2198 -2.0755 -0.2167
  191en-    HQM 6854   1.891   3.229   0.607  0.2447 -0.3842 -0.3430
  191en-    HQM 6855   2.119   3.293   0.705  0.4051  0.8250  0.1641
  191en-    HQM 6856   2.273   3.410   0.567 -1.0918 -0.0997  0.0915
  191en-    HQM 6857   2.355   3.497   0.351 -0.7292  0.4248  1.3610
  191en-    HQM 6858   2.026   3.370  -0.072 -1.9065  1.6448  2.3293
  191en-    CQM 6859   2.212   3.471  -0.117  0.7357  0.3960  0.0917
  191en-    CQM 6860   2.332   3.526  -0.059  0.0451  0.6545  0.3320
  191en-    CQM 6861   2.426   3.583  -0.149  0.1311 -0.6649  0.0875
  191en-    CQM 6862   2.399   3.590  -0.287 -0.5447  0.3916 -0.1704
  191en-    CQM 6863   2.497   3.640  -0.374 -0.6757 -0.4475 -0.2114
  191en-    CQM 6864   2.471   3.638  -0.513  0.0106  0.1684  0.0895
  191en-    CQM 6865   2.356   3.576  -0.565 -0.6425  0.1104 -0.2225
  191en-    CQM 6866   2.257   3.527  -0.478 -0.6018 -0.3489 -0.4150
  191en-    CQM 6867   2.278   3.536  -0.339 -0.7299 -0.1641 -0.1523
  191en-    CQM 6868   2.188   3.472  -0.256 -0.1023  0.2654 -0.5198
  191en-    HQM 6869   2.094   3.433  -0.293  0.8670 -2.0584 -0.5706
  191en-    HQM 6870   2.169   3.477  -0.517  0.0056 -0.8033 -1.2259
  191en-    HQM 6871   2.346   3.573  -0.673 -2.6238  1.6905 -0.1046
  191en-    HQM 6872   2.547   3.684  -0.576  0.8009 -1.7249 -0.3903
  191en-    HQM 6873   2.589   3.685  -0.338 -1.5186 -0.6025  2.2730
  191en-    HQM 6874   2.526   3.613  -0.118 -0.6401  1.4751  0.5765
  191en-    CQM 6875   2.345   3.521   0.084 -1.1155  0.1975  0.5092
  191en-    HQM 6876   2.436   3.568   0.121  1.1652 -3.8795  0.2974
  192en-    CQM 6877   2.407   3.066   0.100  1.1714 -0.6608  0.1313
  192en-    CQM 6878   2.315   3.071   0.203  0.3130  0.1190 -0.3979
  192en-    CQM 6879   2.338   3.010   0.326  0.1106 -0.6680 -0.1383
  192en-    CQM 6880   2.237   3.009   0.426 -0.0703  1.1163  0.5238
  192en-    CQM 6881   2.262   2.954   0.547  0.2926  0.0788 -0.3927
  192en-    CQM 6882   2.382   2.887   0.572  0.5229 -0.3466  0.0938
  192en-    CQM 6883   2.484   2.884   0.472 -0.4234 -0.4522 -0.3635
  192en-    CQM 6884   2.460   2.948   0.346  0.3629 -0.3667 -0.3200
  192en-    CQM 6885   2.554   2.945   0.247  0.6738 -0.2044  0.5471
  192en-    CQM 6886   2.529   3.003   0.120 -0.2013  0.0702 -1.0299
  192en-    CQM 6887   2.382   3.132  -0.019  0.2327 -0.3247  0.0484
  192en-    HQM 6888   2.228   3.135   0.200 -0.6108 -1.1187 -0.4302
  192en-    HQM 6889   2.144   3.059   0.403 -2.3677 -3.1126  0.2268
  192en-    HQM 6890   2.188   2.958   0.626  0.8742 -0.4202  0.1786
  192en-    HQM 6891   2.391   2.833   0.666 -0.3711  0.4561  0.6426
  192en-    HQM 6892   2.579   2.833   0.482  1.4951  3.0786  0.5226
  192en-    HQM 6893   2.652   2.898   0.257  0.1721 -1.9914 -2.3168
  192en-    HQM 6894   2.291   3.191  -0.027 -0.6162 -1.2891  2.4009
  192en-    CQM 6895   2.481   3.140  -0.117 -0.0895  0.4954  0.4458
  192en-    CQM 6896   2.596   3.065  -0.109  0.4445  1.0017  0.2331
  192en-    CQM 6897   2.698   3.058  -0.209  0.1296 -0.6882  0.3143
  192en-    CQM 6898   2.671   3.132  -0.323 -0.5758  0.1249  0.3654
  192en-    CQM 6899   2.766   3.127  -0.428 -0.6095 -0.3331 -0.7485
  192en-    CQM 6900   2.752   3.206  -0.538 -0.3728  0.6681  0.0458
  192en-    CQM 6901   2.636   3.280  -0.556  0.4064 -0.2921  0.5141
  192en-    CQM 6902   2.535   3.284  -0.461  0.5870  0.0641 -0.8224
  192en-    CQM 6903   2.560   3.215  -0.335 -0.3012  0.0110  0.5557
  192en-    CQM 6904   2.463   3.224  -0.232  0.0494  0.0423  0.9560
  192en-    HQM 6905   2.376   3.287  -0.248  0.2080  0.7372  2.7180
  192en-    HQM 6906   2.449   3.349  -0.467  0.1730 -0.6388 -3.0699
  192en-    HQM 6907   2.625   3.338  -0.647  1.3890 -0.1806  0.4596
  192en-    HQM 6908   2.831   3.203  -0.613  0.4304 -0.1324  0.9101
  192en-    HQM 6909   2.857   3.072  -0.405 -0.3135  1.1576  1.8620
  192en-    HQM 6910   2.794   3.009  -0.198  0.9961  0.8370 -0.2716
  192en-    CQM 6911   2.615   2.999   0.011 -0.1863  0.8166  0.1233
  192en-    HQM 6912   2.707   2.941   0.020 -0.6832  0.2276  1.5244
  193en-    CQM 6913   2.182   3.715   1.480  0.0178  0.3129  0.2837
  193en-    CQM 6914   2.073   3.663   1.550  0.3431 -0.4058 -0.6770
  193en-    CQM 6915   2.085   3.651   1.690  0.1527 -0.6289  0.6007
  193en-    CQM 6916   1.977   3.617   1.769  0.0390 -0.3982 -0.0334
  193en-    CQM 6917   1.989   3.610   1.909  0.5334 -0.2055 -0.0857
  193en-    CQM 6918   2.113   3.639   1.968 -0.2969 -0.1049 -0.2993
  193en-    CQM 6919   2.221   3.680   1.891  0.0292  0.3171 -0.3073
  193en-    CQM 6920   2.210   3.679   1.753 -0.0509 -0.6720  0.1785
  193en-    CQM 6921   2.315   3.731   1.680 -0.3538 -0.9286 -0.2481
  193en-    CQM 6922   2.302   3.751   1.545 -0.0679 -0.5910  0.4389
  193en-    CQM 6923   2.156   3.733   1.340 -0.2438 -0.0108 -0.1802
  193en-    HQM 6924   1.978   3.643   1.502 -0.0700 -0.8903  0.3148
  193en-    HQM 6925   1.881   3.587   1.730  0.9815 -1.1482 -1.8573
  193en-    HQM 6926   1.901   3.575   1.962 -0.4347 -2.0283 -2.8348
  193en-    HQM 6927   2.112   3.637   2.077  0.4263 -0.2334 -0.2892
  193en-    HQM 6928   2.322   3.687   1.930  0.0950  1.3428 -0.6422
  193en-    HQM 6929   2.412   3.758   1.722 -0.2357  0.5267 -1.4042
  193en-    HQM 6930   2.060   3.708   1.297 -0.4054 -0.7152  0.5841
  193en-    CQM 6931   2.260   3.784   1.261 -0.3073 -0.1085  0.4215
  193en-    CQM 6932   2.379   3.821   1.325  0.7201  0.1830 -0.5829
  193en-    CQM 6933   2.480   3.875   1.243 -0.3677 -0.2550  0.2607
  193en-    CQM 6934   2.467   3.889   1.104 -0.0062  0.6154  0.6252
  193en-    CQM 6935   2.569   3.958   1.027  0.4882  0.6814 -0.2483
  193en-    CQM 6936   2.549   3.981   0.892 -0.1913 -0.3735  0.1692
  193en-    CQM 6937   2.433   3.927   0.829 -0.1455  0.5378  0.2774
  193en-    CQM 6938   2.326   3.878   0.906 -0.6580 -0.2315 -0.4247
  193en-    CQM 6939   2.342   3.856   1.043  0.1023  0.1464  0.4244
  193en-    CQM 6940   2.242   3.800   1.123  0.8632  0.1203 -0.2116
  193en-    HQM 6941   2.150   3.764   1.079 -1.9637  1.5531  4.1986
  193en-    HQM 6942   2.246   3.822   0.858  0.1927 -0.8587 -1.1370
  193en-    HQM 6943   2.431   3.921   0.721 -0.8165 -0.5114  0.3475
  193en-    HQM 6944   2.627   4.038   0.843  0.1521 -0.0263  1.1016
  193en-    HQM 6945   2.656   3.997   1.078  0.2364  1.9437 -0.7549
  193en-    HQM 6946   2.575   3.904   1.288  1.2769 -0.6720 -2.8108
  193en-    CQM 6947   2.404   3.805   1.462  0.6035 -0.4623 -0.2839
  193en-    HQM 6948   2.493   3.842   1.512  0.3329  2.1173 -1.6376
  194en-    CQM 6949   2.444   3.377   1.515  0.9637 -0.6500  0.2162
  194en-    CQM 6950   2.346   3.379   1.614  0.3740 -0.2790 -0.1179
  194en-    CQM 6951   2.374   3.328   1.745 -0.0282  1.0765  0.6451
  194en-    CQM 6952   2.276   3.321   1.842 -0.0309 -0.4660 -0.2072
  194en-    CQM 6953   2.301   3.250   1.967  0.1785  0.2727  0.2609
  194en-    CQM 6954   2.424   3.198   1.994 -0.4077 -0.4866  0.5369
  194en-    CQM 6955   2.519   3.197   1.894 -0.2167  0.6593 -0.4688
  194en-    CQM 6956   2.497   3.264   1.769  0.4836  0.3053 -0.9713
  194en-    CQM 6957   2.593   3.254   1.673  0.9083  0.1381  0.4821
  194en-    CQM 6958   2.567   3.315   1.549 -0.9527 -0.2735  0.5772
  194en-    CQM 6959   2.426   3.443   1.390 -0.4380 -0.0406  0.2193
  194en-    HQM 6960   2.245   3.417   1.597 -0.3635 -2.1154 -0.0141
  194en-    HQM 6961   2.177   3.364   1.830 -0.6458 -2.1057 -1.2393
  194en-    HQM 6962   2.218   3.241   2.037  1.0888  1.5063  1.5096
  194en-    HQM 6963   2.430   3.147   2.090  0.3303  1.3671  1.5050
  194en-    HQM 6964   2.613   3.143   1.908  0.1397  1.1176 -1.0672
  194en-    HQM 6965   2.688   3.203   1.686  0.8242  0.3794  2.0404
  194en-    HQM 6966   2.335   3.496   1.367 -0.2230  0.1057 -0.2905
  194en-    CQM 6967   2.528   3.445   1.292  0.6081 -0.4075 -0.0972
  194en-    CQM 6968   2.646   3.378   1.329 -0.2227  0.0332  0.6577
  194en-    CQM 6969   2.745   3.370   1.228  0.4524 -0.2044 -0.7204
  194en-    CQM 6970   2.726   3.432   1.105  0.3872 -0.1473 -0.2731
  194en-    CQM 6971   2.831   3.423   1.007 -0.4267 -0.4340 -0.2426
  194en-    CQM 6972   2.835   3.498   0.885  0.2000 -0.2484 -0.2190
  194en-    CQM 6973   2.715   3.568   0.861  0.0966  0.7286 -0.2570
  194en-    CQM 6974   2.605   3.564   0.953 -0.4688  0.2192  0.6934
  194en-    CQM 6975   2.612   3.497   1.077  0.3677 -0.2642 -0.5769
  194en-    CQM 6976   2.508   3.497   1.166 -0.3037 -0.3157  0.3307
  194en-    HQM 6977   2.411   3.543   1.151  0.8129  2.3919  1.0819
  194en-    HQM 6978   2.516   3.620   0.926 -0.7984 -0.2246  0.8605
  194en-    HQM 6979   2.705   3.628   0.771 -0.6063 -0.3211 -0.8864
  194en-    HQM 6980   2.915   3.502   0.811  0.9964  0.1548  0.6543
  194en-    HQM 6981   2.925   3.373   1.028 -1.0356 -0.5670  2.3967
  194en-    HQM 6982   2.843   3.324   1.239  0.5655 -0.0515 -1.0736
  194en-    CQM 6983   2.671   3.318   1.451  0.5564 -0.4430 -0.1135
  194en-    HQM 6984   2.757   3.253   1.460 -0.7259 -2.1600  0.1238
  195en-    CQM 6985   1.830   0.189   2.879 -0.6977  0.4040 -0.1587
  195en-    CQM 6986   1.723   0.145   2.963 -1.0416  0.2797 -0.6926
  195en-    CQM 6987   1.740   0.136   3.100 -0.0653  0.1287  0.6170
  195en-    CQM 6988   1.636   0.089   3.185  0.3905 -0.1914  0.0882
  195en-    CQM 6989   1.647   0.095   3.325 -0.2443  0.3370  0.3937
  195en-    CQM 6990   1.764   0.146   3.382  0.8358 -0.0260  0.6144
  195en-    CQM 6991   1.868   0.197   3.299 -0.2698  0.2699  0.7721
  195en-    CQM 6992   1.858   0.186   3.156  0.3764 -0.0934 -0.3066
  195en-    CQM 6993   1.964   0.236   3.076 -0.6778  0.6338 -0.6864
  195en-    CQM 6994   1.950   0.234   2.938  0.1819 -0.3468  0.1292
  195en-    CQM 6995   1.817   0.199   2.738  0.7486 -0.5692  0.5393
  195en-    HQM 6996   1.625   0.124   2.922 -0.5912 -0.5345 -1.3773
  195en-    HQM 6997   1.545   0.061   3.135 -0.9131  1.9166  1.1978
  195en-    HQM 6998   1.567   0.061   3.390 -1.6105  2.8766  0.1025
  195en-    HQM 6999   1.769   0.147   3.490 -2.3638 -2.2839  0.8517
  195en-    HQM 7000   1.952   0.248   3.346  1.9039 -1.0612 -1.5367
  195en-    HQM 7001   2.059   0.273   3.115 -1.0615  0.3331  0.5678
  195en-    HQM 7002   1.730   0.164   2.683 -0.9588  1.5939  1.7948
  195en-    CQM 7003   1.921   0.257   2.661  0.0473 -0.5666 -0.0862
  195en-    CQM 7004   2.039   0.307   2.721  0.1670  0.2928 -0.1305
  195en-    CQM 7005   2.139   0.371   2.644 -0.3201  0.5347  0.1025
  195en-    CQM 7006   2.124   0.369   2.503  0.3332  0.4636 -0.0533
  195en-    CQM 7007   2.221   0.425   2.425 -0.1342 -0.9588 -0.6219
  195en-    CQM 7008   2.207   0.433   2.284 -0.4197 -0.0604  0.0931
  195en-    CQM 7009   2.090   0.378   2.222  0.3074 -0.2403  0.4404
  195en-    CQM 7010   1.992   0.311   2.303  0.4265  0.3885 -0.0706
  195en-    CQM 7011   2.004   0.316   2.446  0.2016 -0.4340  0.2884
  195en-    CQM 7012   1.902   0.263   2.524 -0.4198 -0.8031 -0.0672
  195en-    HQM 7013   1.821   0.209   2.476 -0.6278 -0.0313 -0.5841
  195en-    HQM 7014   1.908   0.264   2.252  0.7777  1.5054 -1.7113
  195en-    HQM 7015   2.089   0.367   2.114  0.1234  0.7018  0.3432
  195en-    HQM 7016   2.286   0.486   2.231  0.2085 -0.2424  0.8317
  195en-    HQM 7017   2.309   0.469   2.472 -1.1720 -1.8033  2.2056
  195en-    HQM 7018   2.222   0.423   2.692  0.4100 -0.6529  0.1539
  195en-    CQM 7019   2.054   0.285   2.863 -0.1393 -0.2478 -0.4559
  195en-    HQM 7020   2.142   0.321   2.915  0.1729  0.0452 -1.1853
  196en-    CQM 7021   2.482   3.704   2.932 -0.0763  0.0596  0.0320
  196en-    CQM 7022   2.386   3.699   3.029  0.2970  0.2753 -0.5124
  196en-    CQM 7023   2.420   3.641   3.157 -0.2283  0.3075  0.3290
  196en-    CQM 7024   2.325   3.630   3.258 -0.9250  0.3996 -0.3422
  196en-    CQM 7025   2.355   3.565   3.384  0.2723  0.6761  0.6512
  196en-    CQM 7026   2.489   3.519   3.404  0.0389 -0.5613  0.2073
  196en-    CQM 7027   2.582   3.523   3.301 -0.5080  0.8971 -0.1899
  196en-    CQM 7028   2.552   3.585   3.182 -0.5056 -0.5970 -0.0543
  196en-    CQM 7029   2.645   3.589   3.080 -0.0141 -0.0137 -0.0206
  196en-    CQM 7030   2.611   3.641   2.953 -0.0603  0.6989 -1.0625
  196en-    CQM 7031   2.462   3.764   2.805 -0.2456 -0.6658 -0.6514
  196en-    HQM 7032   2.293   3.755   3.019  0.0553  0.4450  2.1298
  196en-    HQM 7033   2.221   3.650   3.234 -0.4115  1.6275 -1.5966
  196en-    HQM 7034   2.287   3.547   3.466  0.4398 -1.6032  0.3307
  196en-    HQM 7035   2.515   3.467   3.495  0.9644  1.1146  0.9212
  196en-    HQM 7036   2.683   3.484   3.310 -1.0886 -1.0811 -1.8268
  196en-    HQM 7037   2.740   3.541   3.097 -0.5232 -1.6387 -1.5882
  196en-    HQM 7038   2.372   3.822   2.787 -1.3061 -2.0555  0.1758
  196en-    CQM 7039   2.567   3.764   2.709  0.5221  0.1039  0.4653
  196en-    CQM 7040   2.692   3.708   2.734  1.0301  0.3544  0.4414
  196en-    CQM 7041   2.793   3.701   2.634  0.0740 -0.2922  0.4756
  196en-    CQM 7042   2.768   3.770   2.512 -0.3453 -0.3647 -0.3692
  196en-    CQM 7043   2.867   3.765   2.415 -0.5223 -0.4184 -0.0350
  196en-    CQM 7044   2.856   3.831   2.293  0.5955 -0.2037  0.4655
  196en-    CQM 7045   2.737   3.906   2.267  0.3231 -0.7793  0.3373
  196en-    CQM 7046   2.627   3.893   2.353 -0.5034  0.4502 -0.2311
  196en-    CQM 7047   2.642   3.830   2.479  0.0997  0.3210 -0.3618
  196en-    CQM 7048   2.544   3.825   2.583  0.2855 -0.2760 -0.0319
  196en-    HQM 7049   2.446   3.868   2.565  0.2597  0.1295  1.0100
  196en-    HQM 7050   2.533   3.942   2.327 -0.9701  0.1428  0.8688
  196en-    HQM 7051   2.729   3.970   2.179  2.8172 -0.5563  0.2483
  196en-    HQM 7052   2.933   3.826   2.217 -0.4884 -1.0090 -0.6150
  196en-    HQM 7053   2.957   3.707   2.434 -0.4684 -0.3544 -0.0939
  196en-    HQM 7054   2.886   3.651   2.659  0.6841  0.8148  0.4545
  196en-    CQM 7055   2.713   3.653   2.859 -0.4495  0.4902  0.6315
  196en-    HQM 7056   2.806   3.604   2.886 -2.4253 -3.8370  0.0447
  197en-    CQM 7057   1.901   0.530   4.300 -0.2984 -0.4607 -0.3037
  197en-    CQM 7058   1.808   0.473   4.386 -0.8799  0.3244  0.5586
  197en-    CQM 7059   1.833   0.459   4.522  0.4151  0.0151 -0.2740
  197en-    CQM 7060   1.741   0.404   4.618 -0.5352  0.2778  0.4440
  197en-    CQM 7061   1.771   0.391   4.758 -0.2262 -0.1113  0.3665
  197en-    CQM 7062   1.892   0.449   4.806  0.2562 -0.1825  0.6277
  197en-    CQM 7063   1.983   0.504   4.713 -0.2008 -0.6110  0.8049
  197en-    CQM 7064   1.952   0.512   4.575 -0.3472  0.8390 -0.0076
  197en-    CQM 7065   2.041   0.584   4.495  0.3955  0.5321 -0.0972
  197en-    CQM 7066   2.013   0.595   4.352 -0.8181  0.0596 -0.1182
  197en-    CQM 7067   1.879   0.528   4.162  0.0652 -0.3033  1.4215
  197en-    HQM 7068   1.716   0.431   4.347 -0.2961  1.7181 -2.4279
  197en-    HQM 7069   1.648   0.360   4.584  1.1978 -2.8754 -0.3949
  197en-    HQM 7070   1.706   0.354   4.837  1.4400 -1.6576  1.0407
  197en-    HQM 7071   1.903   0.453   4.914  3.0359 -2.0180  0.4628
  197en-    HQM 7072   2.069   0.555   4.756  0.0941  0.3701 -0.9298
  197en-    HQM 7073   2.134   0.627   4.532 -1.1138  3.1401  0.7523
  197en-    HQM 7074   1.792   0.471   4.131  0.0440  0.6944 -0.4056
  197en-    CQM 7075   1.967   0.589   4.073 -0.2446  0.8229 -0.1671
  197en-    CQM 7076   2.080   0.651   4.123 -0.0701 -0.0829 -0.3852
  197en-    CQM 7077   2.173   0.711   4.032  0.2922  0.3161  0.1839
  197en-    CQM 7078   2.146   0.710   3.896  0.1229 -0.4606  0.0347
  197en-    CQM 7079   2.242   0.771   3.813 -0.2811 -0.3836 -0.2033
  197en-    CQM 7080   2.216   0.787   3.675 -0.4909  0.4247 -0.1105
  197en-    CQM 7081   2.100   0.730   3.616  0.0411 -0.1427  1.3717
  197en-    CQM 7082   2.012   0.665   3.701 -0.2576  0.3152 -0.4646
  197en-    CQM 7083   2.035   0.656   3.842  0.1135 -0.0060  0.5268
  197en-    CQM 7084   1.940   0.593   3.935 -0.3479  0.1515  0.2019
  197en-    HQM 7085   1.860   0.543   3.882 -0.7308 -0.3641  1.2507
  197en-    HQM 7086   1.922   0.625   3.655 -1.4130 -0.4576  2.3352
  197en-    HQM 7087   2.076   0.746   3.512 -1.0979  2.8004  2.0482
  197en-    HQM 7088   2.277   0.848   3.609 -0.9032  2.6276  1.4697
  197en-    HQM 7089   2.332   0.819   3.850 -0.6234  0.6549 -0.6885
  197en-    HQM 7090   2.263   0.760   4.067  1.2101 -0.4963 -1.0450
  197en-    CQM 7091   2.102   0.652   4.263  0.3939 -0.9033  0.5664
  197en-    HQM 7092   2.196   0.693   4.299  0.9787 -1.3829 -0.3696
  198en-    CQM 7093   2.164   0.221   4.336 -0.0440  0.0090  0.3830
  198en-    CQM 7094   2.064   0.210   4.433  0.3744 -0.6955 -0.1620
  198en-    CQM 7095   2.089   0.140   4.557 -0.4540 -0.3473  0.0040
  198en-    CQM 7096   1.987   0.133   4.651  0.4951  0.2390  0.1441
  198en-    CQM 7097   2.009   0.065   4.768 -0.0181 -0.6229  0.6238
  198en-    CQM 7098   2.136   0.017   4.801 -0.0435 -0.6081  0.4187
  198en-    CQM 7099   2.239   0.022   4.707  0.2009 -0.1292  0.4845
  198en-    CQM 7100   2.215   0.083   4.582 -0.1421  0.0612 -0.2663
  198en-    CQM 7101   2.316   0.091   4.484 -0.4984  0.0816 -0.2374
  198en-    CQM 7102   2.287   0.160   4.363  0.1129  0.3559  0.3007
  198en-    CQM 7103   2.138   0.282   4.213  0.3137  0.0151 -0.2640
  198en-    HQM 7104   1.969   0.257   4.409  0.8486  0.3724 -0.0029
  198en-    HQM 7105   1.887   0.174   4.643 -0.4744 -1.9123  0.7953
  198en-    HQM 7106   1.935   0.055   4.847 -0.5611  1.6230  0.4192
  198en-    HQM 7107   2.154  -0.034   4.895 -0.0105  0.3668  0.9553
  198en-    HQM 7108   2.340  -0.014   4.724 -0.3821 -0.4835  3.4720
  198en-    HQM 7109   2.414   0.046   4.499 -1.3817 -1.5469  0.8983
  198en-    HQM 7110   2.038   0.315   4.186  0.1682 -1.1729 -1.2134
  198en-    CQM 7111   2.237   0.283   4.119  0.9507 -0.2362  0.1719
  198en-    CQM 7112   2.365   0.230   4.143 -0.1182 -0.9432 -0.0550
  198en-    CQM 7113   2.464   0.227   4.043 -0.0459 -0.9669 -0.0954
  198en-    CQM 7114   2.434   0.288   3.918 -0.3420  0.6139 -0.0056
  198en-    CQM 7115   2.534   0.273   3.826 -0.2435  0.7621  0.4739
  198en-    CQM 7116   2.514   0.330   3.698  0.5814  0.8168 -0.3435
  198en-    CQM 7117   2.393   0.394   3.671  0.4594 -0.4986  0.3323
  198en-    CQM 7118   2.291   0.411   3.769  0.3318  0.7906 -0.1412
  198en-    CQM 7119   2.312   0.354   3.898  0.3591  0.3129  0.2069
  198en-    CQM 7120   2.208   0.346   3.994 -0.0085  0.9408  0.1098
  198en-    HQM 7121   2.105   0.365   3.965  0.3314  0.2841 -1.5403
  198en-    HQM 7122   2.197   0.459   3.742 -0.6793 -1.1270 -0.1309
  198en-    HQM 7123   2.378   0.440   3.574 -1.9683  2.8367  2.1713
  198en-    HQM 7124   2.582   0.323   3.613  0.5772 -3.3350 -0.1459
  198en-    HQM 7125   2.627   0.220   3.843 -0.1322  0.3156 -1.3641
  198en-    HQM 7126   2.563   0.188   4.064  1.0332  1.4038 -0.6606
  198en-    CQM 7127   2.387   0.163   4.265 -0.3260 -0.1933  0.3422
  198en-    HQM 7128   2.480   0.107   4.274  0.3860  0.6633 -1.5445
  199en-    CQM 7129   1.959   0.874   5.689  0.0496  0.1663 -0.0477
  199en-    CQM 7130   1.863   0.815   5.772  0.8148 -0.3117 -0.0862
  199en-    CQM 7131   1.891   0.797   5.904 -0.3934  0.7452 -0.3075
  199en-    CQM 7132   1.795   0.740   5.992  0.0860  0.6543 -0.1686
  199en-    CQM 7133   1.821   0.712   6.128 -0.0362 -0.1297  0.5855
  199en-    CQM 7134   1.941   0.767   6.181  0.6253  0.6385  0.1863
  199en-    CQM 7135   2.034   0.829   6.099  0.0686 -0.3671  1.0331
  199en-    CQM 7136   2.008   0.846   5.962 -0.7271 -0.2361  0.1757
  199en-    CQM 7137   2.106   0.903   5.881  0.0412 -0.4846  0.4288
  199en-    CQM 7138   2.087   0.915   5.743 -0.4070 -0.2366 -0.0548
  199en-    CQM 7139   1.934   0.894   5.548 -0.2552  0.7857 -0.3786
  199en-    HQM 7140   1.769   0.773   5.737  1.7396 -2.3066 -0.2267
  199en-    HQM 7141   1.697   0.729   5.948  1.1638 -0.4362 -2.3938
  199en-    HQM 7142   1.742   0.671   6.189 -0.2848  0.2227  0.5001
  199en-    HQM 7143   1.946   0.783   6.288 -0.4590 -0.9777  0.4966
  199en-    HQM 7144   2.126   0.863   6.147  1.2893 -0.8014 -0.9208
  199en-    HQM 7145   2.198   0.943   5.923 -0.8231  1.3315  0.6153
  199en-    HQM 7146   1.835   0.873   5.509 -0.2221 -1.1705  0.5067
  199en-    CQM 7147   2.030   0.955   5.465  0.2308 -0.2914  0.6368
  199en-    CQM 7148   2.152   0.997   5.522  0.6654 -0.2773  0.8845
  199en-    CQM 7149   2.252   1.045   5.438 -0.1556  0.3213 -0.2603
  199en-    CQM 7150   2.215   1.061   5.305 -0.0705  0.1088  0.0224
  199en-    CQM 7151   2.312   1.123   5.220  0.7745  1.2785 -0.0714
  199en-    CQM 7152   2.281   1.151   5.092  0.0207  0.4347  0.0523
  199en-    CQM 7153   2.163   1.101   5.034 -0.5913 -0.0859  0.2149
  199en-    CQM 7154   2.070   1.031   5.109  0.0204  1.0908 -0.5766
  199en-    CQM 7155   2.098   1.021   5.249  0.0322 -0.8604  0.1409
  199en-    CQM 7156   2.001   0.969   5.331  0.4449  0.1544  0.0490
  199en-    HQM 7157   1.911   0.926   5.289  0.9372 -1.8116  0.9514
  199en-    HQM 7158   1.978   0.986   5.071  0.2880 -0.0704  0.1301
  199en-    HQM 7159   2.148   1.112   4.927 -2.0916  2.6572  0.6884
  199en-    HQM 7160   2.356   1.211   5.041 -0.4318  2.7919  2.1203
  199en-    HQM 7161   2.404   1.161   5.263  0.0566  1.2976  1.4896
  199en-    HQM 7162   2.352   1.076   5.466 -0.4515  1.1920 -0.1568
  199en-    CQM 7163   2.178   0.977   5.660 -0.8153  0.5805  0.1361
  199en-    HQM 7164   2.270   1.017   5.701  0.2791 -1.4046 -0.3129
  200en-    CQM 7165   2.228   0.549   5.711  0.1311 -0.7583 -0.4836
  200en-    CQM 7166   2.130   0.545   5.813  0.9834 -0.3328  0.2516
  200en-    CQM 7167   2.160   0.490   5.938  0.0782  0.1715 -0.8325
  200en-    CQM 7168   2.060   0.489   6.037  0.1217 -0.2039  0.0165
  200en-    CQM 7169   2.096   0.437   6.164  0.2908 -1.2810  0.2231
  200en-    CQM 7170   2.212   0.370   6.182  0.8119 -0.4138 -0.0630
  200en-    CQM 7171   2.309   0.368   6.081 -0.3712 -0.3767 -0.7672
  200en-    CQM 7172   2.283   0.426   5.956 -0.7127 -0.1929 -0.0212
  200en-    CQM 7173   2.383   0.427   5.854  0.7421 -0.2501 -0.1955
  200en-    CQM 7174   2.352   0.483   5.735 -0.3274  0.3079  0.3385
  200en-    CQM 7175   2.203   0.629   5.598  0.0209 -0.9886 -0.3370
  200en-    HQM 7176   2.035   0.597   5.801  1.7554  1.8221  2.9342
  200en-    HQM 7177   1.965   0.539   6.024  0.0589 -0.2818  0.1863
  200en-    HQM 7178   2.026   0.451   6.246  0.8100  0.5513  0.3837
  200en-    HQM 7179   2.236   0.309   6.268  0.7510  1.6454  1.4592
  200en-    HQM 7180   2.397   0.304   6.087 -2.1756 -2.7424  1.6374
  200en-    HQM 7181   2.480   0.378   5.863  0.7124 -0.6892 -2.0024
  200en-    HQM 7182   2.115   0.690   5.584  1.9071  2.0297  0.4193
  200en-    CQM 7183   2.302   0.625   5.499 -0.0614  0.1039  0.9908
  200en-    CQM 7184   2.428   0.560   5.518 -0.4918 -0.5046  1.0217
  200en-    CQM 7185   2.528   0.567   5.418 -0.1260 -0.3444  0.0322
  200en-    CQM 7186   2.502   0.637   5.302  0.0731  0.0803 -0.1109
  200en-    CQM 7187   2.587   0.624   5.194  0.3632  0.4111 -0.1311
  200en-    CQM 7188   2.568   0.701   5.077 -0.0143 -0.8214  0.0907
  200en-    CQM 7189   2.449   0.778   5.068 -0.3567  0.1073  0.5069
  200en-    CQM 7190   2.354   0.775   5.170 -0.1214 -1.2129  0.6542
  200en-    CQM 7191   2.382   0.707   5.287  0.0649  0.1904  0.7166
  200en-    CQM 7192   2.278   0.702   5.383 -0.0897 -0.3783 -0.1827
  200en-    HQM 7193   2.186   0.760   5.376 -1.4953 -2.4882  0.0644
  200en-    HQM 7194   2.259   0.828   5.163  0.1863 -0.5313  1.5748
  200en-    HQM 7195   2.430   0.838   4.979  1.6199 -0.4560 -0.3217
  200en-    HQM 7196   2.649   0.707   5.004 -0.3350  0.0254 -0.2062
  200en-    HQM 7197   2.677   0.564   5.202 -0.1349 -0.2325  0.7254
  200en-    HQM 7198   2.625   0.521   5.437 -0.4777 -1.4279 -0.7294
  200en-    CQM 7199   2.449   0.484   5.632 -0.4765 -1.2387  0.9826
  200en-    HQM 7200   2.545   0.435   5.644  1.4722  2.1122 -0.2780
  201en-    CQM 7201   2.466   0.313   0.080 -0.9744 -0.0661 -0.3471
  201en-    CQM 7202   2.370   0.272   0.171  0.6946  0.5515  0.2118
  201en-    CQM 7203   2.405   0.264   0.308  0.0584 -0.1044 -0.2565
  201en-    CQM 7204   2.304   0.208   0.390 -0.1443  0.5198  0.0477
  201en-    CQM 7205   2.328   0.206   0.530  0.1618  0.3314 -0.0743
  201en-    CQM 7206   2.448   0.246   0.579 -0.2941 -0.2236 -0.2741
  201en-    CQM 7207   2.554   0.290   0.499 -0.0954  0.4082  0.2609
  201en-    CQM 7208   2.529   0.299   0.366 -0.1433 -0.3721 -0.3067
  201en-    CQM 7209   2.621   0.351   0.271 -0.4011  0.5052  0.1482
  201en-    CQM 7210   2.593   0.362   0.134 -0.1071  0.1079  0.3906
  201en-    CQM 7211   2.449   0.322  -0.060 -0.5342 -0.0112 -0.6058
  201en-    HQM 7212   2.274   0.245   0.127  0.1401  0.2344  1.5987
  201en-    HQM 7213   2.209   0.180   0.346  0.2952 -0.7142 -0.1035
  201en-    HQM 7214   2.248   0.164   0.591 -2.1587  0.2488 -3.0662
  201en-    HQM 7215   2.464   0.235   0.686  3.3868 -1.8121 -0.8961
  201en-    HQM 7216   2.643   0.326   0.551  1.3535 -2.0384 -0.4143
  201en-    HQM 7217   2.719   0.392   0.295  1.3370 -1.8463 -2.6046
  201en-    HQM 7218   2.356   0.282  -0.100 -0.6749  0.1193 -0.4111
  201en-    CQM 7219   2.546   0.385  -0.135  0.0554 -0.0836 -0.4138
  201en-    CQM 7220   2.669   0.433  -0.082 -0.0637  0.5311  0.4325
  201en-    CQM 7221   2.758   0.497  -0.164 -0.0538 -0.1393 -0.0062
  201en-    CQM 7222   2.733   0.511  -0.302  0.0494  0.0537  0.1279
  201en-    CQM 7223   2.824   0.584  -0.384 -0.3501  0.5620  0.5296
  201en-    CQM 7224   2.798   0.608  -0.519  0.0656  0.1154 -0.4110
  201en-    CQM 7225   2.678   0.559  -0.572 -0.0943 -0.7331 -0.2074
  201en-    CQM 7226   2.589   0.485  -0.492  0.3586 -0.2072 -0.1086
  201en-    CQM 7227   2.607   0.468  -0.354 -0.1888 -0.1030  0.0195
  201en-    CQM 7228   2.514   0.403  -0.272 -0.2907 -0.3894  0.9989
  201en-    HQM 7229   2.425   0.362  -0.317  0.0110 -0.3615  0.3675
  201en-    HQM 7230   2.493   0.465  -0.539 -0.1364  1.3002  0.2515
  201en-    HQM 7231   2.661   0.578  -0.677  0.2364 -2.3632 -0.5639
  201en-    HQM 7232   2.859   0.671  -0.584  0.9004  0.1211  0.3644
  201en-    HQM 7233   2.914   0.623  -0.336  0.1107  0.8757 -0.5503
  201en-    HQM 7234   2.852   0.537  -0.127  0.1002 -0.9587  0.4999
  201en-    CQM 7235   2.693   0.421   0.052  0.0100  0.6857  0.3703
  201en-    HQM 7236   2.785   0.460   0.093  0.8080  1.0651 -1.7349
  202en-    CQM 7237   3.097   3.834   0.091  0.2166 -0.2350  0.2104
  202en-    CQM 7238   3.000   3.847   0.197  0.1933 -0.3161  0.4839
  202en-    CQM 7239   3.024   3.780   0.319  1.1034 -0.2264 -0.4982
  202en-    CQM 7240   2.926   3.792   0.417 -0.2883 -0.2810  0.2143
  202en-    CQM 7241   2.938   3.713   0.534  0.6947 -0.7660 -0.0828
  202en-    CQM 7242   3.056   3.638   0.553 -0.2216  0.0456  0.0207
  202en-    CQM 7243   3.160   3.644   0.460  0.1994  0.0930 -0.4897
  202en-    CQM 7244   3.141   3.709   0.342 -0.1290 -0.3486  0.8662
  202en-    CQM 7245   3.243   3.698   0.239  0.0163 -0.0213 -0.0857
  202en-    CQM 7246   3.224   3.764   0.114 -0.3802 -0.3608 -0.3858
  202en-    CQM 7247   3.080   3.892  -0.034 -0.3626  0.6380 -0.5697
  202en-    HQM 7248   2.908   3.901   0.179  0.2794 -1.0746 -2.6808
  202en-    HQM 7249   2.843   3.860   0.398  0.1652 -0.7198 -3.6428
  202en-    HQM 7250   2.865   3.711   0.614  0.0591  0.8727 -0.5975
  202en-    HQM 7251   3.070   3.581   0.644  0.0268 -0.4541 -0.3246
  202en-    HQM 7252   3.254   3.591   0.471  0.5977  0.2882 -2.8114
  202en-    HQM 7253   3.327   3.630   0.249  1.2519  1.2869 -1.2575
  202en-    HQM 7254   2.992   3.956  -0.038 -1.4277 -0.6094  1.9152
  202en-    CQM 7255   3.173   3.890  -0.142 -0.0018  0.1986  0.1796
  202en-    CQM 7256   3.290   3.818  -0.117  0.1161 -0.1611 -0.5835
  202en-    CQM 7257   3.389   3.819  -0.215 -0.3641  0.1622  0.7017
  202en-    CQM 7258   3.371   3.891  -0.340  0.3315 -0.1638 -0.2463
  202en-    CQM 7259   3.479   3.891  -0.436  1.0837 -0.0268  0.0476
  202en-    CQM 7260   3.467   3.972  -0.553 -0.0167 -0.0179  0.7661
  202en-    CQM 7261   3.346   4.039  -0.579  0.5604 -0.7919  0.2752
  202en-    CQM 7262   3.235   4.029  -0.486 -0.1056 -0.2958  0.7349
  202en-    CQM 7263   3.251   3.962  -0.366  0.9528 -0.5179 -0.1847
  202en-    CQM 7264   3.157   3.962  -0.261 -0.2120 -0.4827  0.2360
  202en-    HQM 7265   3.072   4.030  -0.257 -0.6363 -0.8696 -1.7790
  202en-    HQM 7266   3.147   4.089  -0.505  0.3490  0.6371  1.5460
  202en-    HQM 7267   3.341   4.109  -0.663 -0.4593 -2.1410 -0.8213
  202en-    HQM 7268   3.548   3.977  -0.626 -1.1479  0.5928 -0.4653
  202en-    HQM 7269   3.572   3.837  -0.420  1.4190  0.6286  0.3601
  202en-    HQM 7270   3.480   3.760  -0.205  1.2814  1.8134 -3.4103
  202en-    CQM 7271   3.313   3.755   0.011 -0.2038  0.1924  0.2077
  202en-    HQM 7272   3.407   3.703   0.029 -1.0366 -1.0627  1.0641
  203en-    CQM 7273   2.508   0.626   1.513  0.5213  0.2199  0.2452
  203en-    CQM 7274   2.412   0.572   1.596  0.7268  0.0864  0.2082
  203en-    CQM 7275   2.419   0.569   1.737  0.1220 -0.0655 -0.5149
  203en-    CQM 7276   2.315   0.506   1.815  0.5783 -0.7586  0.2151
  203en-    CQM 7277   2.333   0.498   1.954 -0.0130  0.5605  0.0420
  203en-    CQM 7278   2.452   0.555   2.014  0.2387 -0.6543  0.4157
  203en-    CQM 7279   2.557   0.602   1.927  0.4838  0.3046 -0.7984
  203en-    CQM 7280   2.540   0.612   1.793 -0.3100  0.3457  0.1689
  203en-    CQM 7281   2.639   0.663   1.711  0.0821  0.1935 -0.1142
  203en-    CQM 7282   2.622   0.676   1.569  0.4087 -0.2457 -0.6378
  203en-    CQM 7283   2.486   0.641   1.373  0.5433  0.6707 -0.5396
  203en-    HQM 7284   2.314   0.542   1.558  1.0033 -0.5929  0.0322
  203en-    HQM 7285   2.231   0.457   1.766 -2.1749  2.7915  1.1504
  203en-    HQM 7286   2.253   0.452   2.012  1.3433  0.7480  2.1127
  203en-    HQM 7287   2.461   0.544   2.122  2.0321  2.1311  0.6154
  203en-    HQM 7288   2.651   0.633   1.973  2.2620 -4.8317 -0.6825
  203en-    HQM 7289   2.727   0.709   1.755  0.2726  1.6015 -1.9173
  203en-    HQM 7290   2.396   0.596   1.332 -0.4567  0.9104  1.3378
  203en-    CQM 7291   2.587   0.702   1.297 -0.0884  0.5197 -0.2755
  203en-    CQM 7292   2.706   0.754   1.356 -0.5232  0.3501 -0.3456
  203en-    CQM 7293   2.805   0.810   1.272 -0.7306  0.1172 -0.6015
  203en-    CQM 7294   2.781   0.813   1.132  0.1987  0.0885  0.1554
  203en-    CQM 7295   2.874   0.854   1.036  0.2696  0.6871  0.1646
  203en-    CQM 7296   2.853   0.845   0.894 -0.1551  0.0767 -0.8637
  203en-    CQM 7297   2.724   0.800   0.853  0.7312 -0.4829  0.1811
  203en-    CQM 7298   2.629   0.756   0.946 -0.4892  0.1592  0.2068
  203en-    CQM 7299   2.658   0.764   1.083 -0.9767  0.3458 -0.1256
  203en-    CQM 7300   2.562   0.709   1.166  0.1963 -0.0683 -0.0112
  203en-    HQM 7301   2.478   0.659   1.118 -0.0670  1.3866 -1.0851
  203en-    HQM 7302   2.542   0.704   0.905 -0.6418  1.4690 -1.1866
  203en-    HQM 7303   2.702   0.797   0.747 -0.5859 -0.6277  0.4533
  203en-    HQM 7304   2.934   0.861   0.824  1.9765 -0.8973  1.3220
  203en-    HQM 7305   2.966   0.893   1.078 -1.0047  1.1999  2.5864
  203en-    HQM 7306   2.899   0.848   1.310 -0.7292 -1.1891  0.7477
  203en-    CQM 7307   2.716   0.744   1.495 -0.2912 -0.3715  0.0225
  203en-    HQM 7308   2.807   0.787   1.536 -1.1304  2.3349 -0.8971
  204en-    CQM 7309   2.801   0.321   1.489 -0.2022  0.0212 -0.4495
  204en-    CQM 7310   2.694   0.315   1.576  0.2231 -0.2065 -0.8928
  204en-    CQM 7311   2.709   0.258   1.705 -0.7738  0.5550 -0.1019
  204en-    CQM 7312   2.609   0.255   1.803 -0.7607  0.4733  0.5337
  204en-    CQM 7313   2.633   0.190   1.924  0.8284  0.3073  0.0789
  204en-    CQM 7314   2.752   0.126   1.951  0.1133  0.3238  0.7161
  204en-    CQM 7315   2.860   0.131   1.857  0.0567  0.4801 -0.3379
  204en-    CQM 7316   2.837   0.192   1.732  0.0769 -0.0406  0.8838
  204en-    CQM 7317   2.937   0.194   1.639 -0.5122 -0.5369 -0.3654
  204en-    CQM 7318   2.922   0.263   1.520  0.5302 -0.0056  0.0174
  204en-    CQM 7319   2.781   0.395   1.373 -1.1295 -0.4680 -0.1578
  204en-    HQM 7320   2.599   0.364   1.556  0.0797  0.5562  1.5630
  204en-    HQM 7321   2.513   0.303   1.788 -0.2622  0.9152 -1.2656
  204en-    HQM 7322   2.552   0.182   1.997  1.1419 -0.3688  0.3607
  204en-    HQM 7323   2.761   0.068   2.043 -0.1105  0.3347  0.7453
  204en-    HQM 7324   2.958   0.085   1.865 -0.4839 -0.5393  0.5545
  204en-    HQM 7325   3.032   0.149   1.667 -1.0897 -1.3231  0.3366
  204en-    HQM 7326   2.695   0.461   1.366 -1.4744 -0.7986  0.8507
  204en-    CQM 7327   2.882   0.400   1.279  0.4356  0.5102 -0.1109
  204en-    CQM 7328   3.001   0.330   1.301 -0.2456 -0.0221 -0.6714
  204en-    CQM 7329   3.104   0.340   1.203 -0.5893 -0.3514 -0.2094
  204en-    CQM 7330   3.082   0.400   1.083 -0.4549  0.3830  0.0540
  204en-    CQM 7331   3.181   0.400   0.983 -0.1023  0.3014 -0.2689
  204en-    CQM 7332   3.167   0.465   0.862 -0.1693  0.5020 -0.4515
  204en-    CQM 7333   3.047   0.534   0.844 -0.2354 -1.1305 -0.8923
  204en-    CQM 7334   2.940   0.527   0.930 -0.3001  0.1385  0.3434
  204en-    CQM 7335   2.959   0.463   1.052 -0.0510  0.6234  0.2773
  204en-    CQM 7336   2.862   0.463   1.154 -0.0176 -0.5196  0.2699
  204en-    HQM 7337   2.767   0.509   1.129  0.4932  1.3505  1.6621
  204en-    HQM 7338   2.840   0.567   0.911 -0.1964  1.3101  2.1428
  204en-    HQM 7339   3.035   0.582   0.747  1.2412 -2.0844 -1.5701
  204en-    HQM 7340   3.247   0.462   0.790 -0.2387  3.0599 -0.6805
  204en-    HQM 7341   3.276   0.354   1.009 -0.2077 -0.4935 -1.2887
  204en-    HQM 7342   3.200   0.291   1.217 -0.1527  0.8813  1.2621
  204en-    CQM 7343   3.025   0.270   1.428  0.3799 -0.5645  0.3350
  204en-    HQM 7344   3.118   0.213   1.431  0.7051 -0.0752 -0.3181
  205en-    CQM 7345   2.533   0.974   2.913 -0.0423  0.6643  0.3111
  205en-    CQM 7346   2.426   0.917   2.990 -0.0421  0.7154  0.2995
  205en-    CQM 7347   2.441   0.903   3.127  0.7747  0.1784  0.0451
  205en-    CQM 7348   2.339   0.845   3.204 -0.2930  0.4239 -0.4426
  205en-    CQM 7349   2.361   0.840   3.344  0.0467  0.7084 -0.1924
  205en-    CQM 7350   2.469   0.891   3.406  1.4330 -0.1063  0.7988
  205en-    CQM 7351   2.559   0.963   3.333 -0.3781  0.6318 -0.0141
  205en-    CQM 7352   2.557   0.964   3.191 -0.0279  0.8906 -0.5799
  205en-    CQM 7353   2.665   1.011   3.118 -0.1720 -0.9053  0.6292
  205en-    CQM 7354   2.655   1.015   2.972 -0.1249  0.4763  0.0154
  205en-    CQM 7355   2.528   0.965   2.773 -0.1554 -0.6451 -0.3868
  205en-    HQM 7356   2.338   0.881   2.937  0.1741 -0.0174  0.4317
  205en-    HQM 7357   2.252   0.798   3.159  1.6249 -2.9789 -0.8247
  205en-    HQM 7358   2.286   0.787   3.402  0.5356  0.7133  0.4603
  205en-    HQM 7359   2.481   0.873   3.512 -0.0360 -0.4800  0.9027
  205en-    HQM 7360   2.647   0.997   3.386 -0.6441 -0.8314  1.4085
  205en-    HQM 7361   2.752   1.054   3.168 -2.2767  4.5132 -0.0091
  205en-    HQM 7362   2.433   0.937   2.729 -1.3853  0.8918  1.2229
  205en-    CQM 7363   2.629   1.025   2.688  0.8054 -0.3989 -0.0460
  205en-    CQM 7364   2.736   1.080   2.749  0.2601  0.1892 -0.0953
  205en-    CQM 7365   2.835   1.143   2.673  0.3876  0.2689 -0.2608
  205en-    CQM 7366   2.824   1.155   2.536  0.3281 -0.6479 -0.4277
  205en-    CQM 7367   2.936   1.200   2.459  0.0284 -0.7231 -0.1651
  205en-    CQM 7368   2.929   1.201   2.316 -0.2229  0.2640  1.0390
  205en-    CQM 7369   2.810   1.162   2.256 -0.2216 -0.3482  0.0775
  205en-    CQM 7370   2.707   1.103   2.331  0.6353  0.3409  0.1923
  205en-    CQM 7371   2.716   1.099   2.472  0.3118  0.5857  0.1426
  205en-    CQM 7372   2.615   1.037   2.544  0.2148 -0.3028 -0.1515
  205en-    HQM 7373   2.523   0.998   2.501 -0.9592  1.8750  0.2920
  205en-    HQM 7374   2.623   1.053   2.284 -2.4538  3.1590  2.3895
  205en-    HQM 7375   2.804   1.159   2.147 -1.5644  3.2399 -0.0030
  205en-    HQM 7376   3.015   1.241   2.265  0.0652  1.8669  2.7500
  205en-    HQM 7377   3.027   1.235   2.508 -0.1565 -1.0997  0.4561
  205en-    HQM 7378   2.921   1.178   2.729  1.4912 -1.3729 -0.8915
  205en-    CQM 7379   2.757   1.068   2.892  0.2038  0.3307 -0.7582
  205en-    HQM 7380   2.843   1.112   2.942 -0.5360  0.8828  0.0525
  206en-    CQM 7381   2.800   0.650   2.920  0.0712  0.4726 -0.4422
  206en-    CQM 7382   2.695   0.658   3.020  0.0398 -0.0942  0.5988
  206en-    CQM 7383   2.711   0.596   3.145  0.6704  0.0766  0.1726
  206en-    CQM 7384   2.613   0.609   3.244  0.2827 -0.3873  0.3272
  206en-    CQM 7385   2.623   0.537   3.363  0.8000 -0.8122 -0.2151
  206en-    CQM 7386   2.740   0.455   3.382  1.1488  0.3739  0.5870
  206en-    CQM 7387   2.845   0.449   3.293 -0.4352  0.5168  0.2498
  206en-    CQM 7388   2.830   0.523   3.171 -0.5598  1.3702 -0.7070
  206en-    CQM 7389   2.931   0.520   3.076 -0.1794  0.2944  0.3569
  206en-    CQM 7390   2.917   0.581   2.951 -0.0997 -0.3198  0.6059
  206en-    CQM 7391   2.781   0.702   2.790  0.1434 -0.5984  0.4176
  206en-    HQM 7392   2.606   0.717   3.003  0.0159 -0.0722  0.7953
  206en-    HQM 7393   2.518   0.659   3.226  1.0208  1.2502  0.8387
  206en-    HQM 7394   2.541   0.531   3.433  0.3247  0.4222 -0.6489
  206en-    HQM 7395   2.740   0.384   3.464 -0.3323  0.3788  0.5964
  206en-    HQM 7396   2.924   0.376   3.307 -0.5654  0.5764  1.3001
  206en-    HQM 7397   3.026   0.471   3.096  0.7873  0.5954 -3.0344
  206en-    HQM 7398   2.692   0.753   2.756  1.6837  1.7404 -0.2232
  206en-    CQM 7399   2.882   0.685   2.693 -0.4638  0.2665  0.6385
  206en-    CQM 7400   3.005   0.621   2.724  0.2077 -0.3272 -0.4573
  206en-    CQM 7401   3.109   0.618   2.629 -0.6713  1.4340 -0.0523
  206en-    CQM 7402   3.087   0.677   2.503  0.0029  0.1144 -0.4209
  206en-    CQM 7403   3.193   0.678   2.415  0.4202  0.1946  0.4742
  206en-    CQM 7404   3.177   0.738   2.286  0.0242 -0.5132 -0.4060
  206en-    CQM 7405   3.060   0.811   2.259  0.3978  0.1141  0.6407
  206en-    CQM 7406   2.961   0.824   2.355  0.1443  0.3878 -0.5851
  206en-    CQM 7407   2.973   0.758   2.482  0.6163  0.2003  1.1855
  206en-    CQM 7408   2.869   0.755   2.571 -0.4339 -0.0462  0.2996
  206en-    HQM 7409   2.777   0.808   2.547 -0.7631  0.0454  1.7740
  206en-    HQM 7410   2.871   0.880   2.331 -1.5959 -0.7313  2.9663
  206en-    HQM 7411   3.052   0.856   2.160 -1.6814  2.4058  1.7839
  206en-    HQM 7412   3.252   0.725   2.209 -0.0590  2.4122 -1.0407
  206en-    HQM 7413   3.287   0.636   2.451  0.5597  3.0116  3.6901
  206en-    HQM 7414   3.203   0.567   2.649  0.3625  3.7623  1.2285
  206en-    CQM 7415   3.020   0.560   2.850 -0.0593 -0.7585  0.7812
  206en-    HQM 7416   3.114   0.509   2.871  0.6952  0.1067 -0.4238
  207en-    CQM 7417   2.595   1.304   4.297 -0.3216  0.6066  0.3572
  207en-    CQM 7418   2.491   1.257   4.382  0.4629  0.5481 -0.4420
  207en-    CQM 7419   2.504   1.267   4.521 -0.2920 -0.9250 -0.2507
  207en-    CQM 7420   2.403   1.219   4.604 -0.8669 -0.5471 -0.4588
  207en-    CQM 7421   2.418   1.215   4.747 -0.0341  0.0443 -0.3176
  207en-    CQM 7422   2.530   1.275   4.803  0.4027 -0.9357  0.4248
  207en-    CQM 7423   2.636   1.321   4.716  0.4597 -0.5792 -0.5862
  207en-    CQM 7424   2.620   1.320   4.580 -0.3680 -0.4341  0.1313
  207en-    CQM 7425   2.716   1.374   4.494 -0.0983 -0.3257 -0.3350
  207en-    CQM 7426   2.709   1.369   4.354  0.2209 -0.0032 -0.6737
  207en-    CQM 7427   2.578   1.307   4.154 -0.9986  0.4866  0.7069
  207en-    HQM 7428   2.401   1.213   4.339  0.0300 -0.6685  1.6611
  207en-    HQM 7429   2.320   1.165   4.559 -0.3455 -1.5855 -0.1910
  207en-    HQM 7430   2.345   1.169   4.813 -0.3823  3.5456  1.8327
  207en-    HQM 7431   2.554   1.275   4.909 -0.5936  2.4960  0.7095
  207en-    HQM 7432   2.725   1.350   4.771  0.4410 -2.4255  0.4627
  207en-    HQM 7433   2.804   1.419   4.538 -0.0808 -2.5275  1.9964
  207en-    HQM 7434   2.491   1.259   4.113 -0.5340 -0.7274  1.1324
  207en-    CQM 7435   2.677   1.364   4.072  0.2720 -0.2424 -0.8946
  207en-    CQM 7436   2.794   1.419   4.131 -0.0609  0.4380  0.9307
  207en-    CQM 7437   2.896   1.476   4.048 -0.2216 -0.5551 -0.3617
  207en-    CQM 7438   2.876   1.488   3.913 -0.5563 -0.7085  0.0993
  207en-    CQM 7439   2.965   1.560   3.825  0.6153  0.7769  0.2072
  207en-    CQM 7440   2.932   1.570   3.689  0.2404 -0.0909  0.3585
  207en-    CQM 7441   2.820   1.508   3.628  0.3242  0.4862 -0.0872
  207en-    CQM 7442   2.727   1.445   3.715  0.5424  0.4207 -0.2376
  207en-    CQM 7443   2.757   1.436   3.850 -0.0446  0.5242 -0.0966
  207en-    CQM 7444   2.662   1.372   3.933  0.2704 -0.3694  0.2939
  207en-    HQM 7445   2.565   1.344   3.892  0.9365 -0.0516 -1.5721
  207en-    HQM 7446   2.633   1.415   3.670 -0.6774  2.3153  0.9761
  207en-    HQM 7447   2.802   1.523   3.522  0.0032 -3.8944 -0.7498
  207en-    HQM 7448   3.005   1.616   3.623  0.3782 -0.4236  0.2767
  207en-    HQM 7449   3.053   1.601   3.875  0.2675  0.3635  1.1715
  207en-    HQM 7450   2.984   1.521   4.094 -1.6734  1.8399  0.1700
  207en-    CQM 7451   2.810   1.424   4.268 -0.9000 -0.0214  0.1709
  207en-    HQM 7452   2.907   1.449   4.309  0.3581 -0.7536 -2.3058
  208en-    CQM 7453   2.872   0.978   4.317 -0.0236  0.0096  0.3445
  208en-    CQM 7454   2.778   0.975   4.420  0.5948  0.2450 -0.4156
  208en-    CQM 7455   2.797   0.907   4.541  0.2392 -0.2508 -0.6401
  208en-    CQM 7456   2.706   0.923   4.647 -0.3469 -0.2244 -0.5170
  208en-    CQM 7457   2.728   0.860   4.768 -0.1984  0.2366  0.0768
  208en-    CQM 7458   2.840   0.777   4.786 -0.0607 -0.2954  0.4319
  208en-    CQM 7459   2.942   0.779   4.685 -0.1204 -0.1649 -0.0488
  208en-    CQM 7460   2.920   0.836   4.562 -0.4260  0.1798  0.2646
  208en-    CQM 7461   3.017   0.839   4.457 -0.4968  0.8612 -0.0063
  208en-    CQM 7462   2.993   0.912   4.337 -0.2302  0.1734  0.1488
  208en-    CQM 7463   2.853   1.055   4.202 -0.3014  0.9354  0.8654
  208en-    HQM 7464   2.689   1.038   4.419 -1.0459 -1.9217  2.5631
  208en-    HQM 7465   2.629   1.000   4.642 -0.3533 -0.1864  0.2095
  208en-    HQM 7466   2.665   0.870   4.855  0.8595  0.2576  0.8504
  208en-    HQM 7467   2.862   0.739   4.886 -0.0905  1.6616  1.2055
  208en-    HQM 7468   3.037   0.728   4.694  0.8174  1.6210  0.3408
  208en-    HQM 7469   3.110   0.791   4.481 -1.6222 -1.4044 -0.0683
  208en-    HQM 7470   2.765   1.116   4.185  0.8018  1.9420 -1.6434
  208en-    CQM 7471   2.943   1.045   4.094 -0.7034  0.9479 -0.4566
  208en-    CQM 7472   3.065   0.981   4.118  0.9188  1.0111 -0.0046
  208en-    CQM 7473   3.160   0.983   4.014 -0.0828 -0.4420 -0.0120
  208en-    CQM 7474   3.135   1.056   3.895 -0.5973  0.5800  0.4640
  208en-    CQM 7475   3.231   1.048   3.794  0.3691  0.2318 -0.3173
  208en-    CQM 7476   3.204   1.096   3.666  0.0345  0.1634 -0.5255
  208en-    CQM 7477   3.086   1.172   3.645 -0.0313  0.5518  0.3337
  208en-    CQM 7478   2.994   1.190   3.748  0.2659 -0.1902 -0.5294
  208en-    CQM 7479   3.013   1.120   3.872  0.2859  0.1944  0.2119
  208en-    CQM 7480   2.920   1.121   3.975 -0.5373  0.2102 -0.8740
  208en-    HQM 7481   2.826   1.174   3.960 -0.8816  0.0678  0.6635
  208en-    HQM 7482   2.906   1.252   3.729 -0.2812  0.1437  2.7600
  208en-    HQM 7483   3.071   1.218   3.548 -1.3645 -3.4546 -1.4800
  208en-    HQM 7484   3.270   1.079   3.581 -0.0825 -0.0475 -0.5743
  208en-    HQM 7485   3.327   1.003   3.820  0.8168  1.5665  0.3600
  208en-    HQM 7486   3.258   0.943   4.039 -0.8495 -2.6211 -0.3436
  208en-    CQM 7487   3.090   0.916   4.236 -0.6314  0.2138  0.1611
  208en-    HQM 7488   3.185   0.865   4.251  0.0066  1.6259  1.1120
  209en-    CQM 7489   2.639   1.673   5.697 -0.2407  0.4814 -1.0589
  209en-    CQM 7490   2.545   1.607   5.778 -0.7980 -0.1383  0.3687
  209en-    CQM 7491   2.566   1.604   5.917 -0.6708 -0.1404  0.0902
  209en-    CQM 7492   2.471   1.540   6.001  0.0159 -0.0049 -0.5079
  209en-    CQM 7493   2.489   1.529   6.143  0.0427 -0.3107  0.0232
  209en-    CQM 7494   2.603   1.589   6.200 -0.3864  0.5989  0.7150
  209en-    CQM 7495   2.702   1.647   6.121 -0.4800 -0.0075 -0.0861
  209en-    CQM 7496   2.685   1.652   5.981  0.2386 -0.0493 -0.2130
  209en-    CQM 7497   2.781   1.700   5.894 -0.3382 -0.2949 -0.5230
  209en-    CQM 7498   2.766   1.707   5.752 -0.5366  0.9363 -0.1216
  209en-    CQM 7499   2.620   1.665   5.557 -0.7114  0.1360  0.4456
  209en-    HQM 7500   2.457   1.558   5.737  0.6654 -1.1228 -1.7054
  209en-    HQM 7501   2.382   1.503   5.951 -1.1792  0.1531  1.4494
  209en-    HQM 7502   2.407   1.484   6.199  0.6013 -1.4955 -0.0837
  209en-    HQM 7503   2.608   1.585   6.309  1.2212  0.0406  0.6335
  209en-    HQM 7504   2.796   1.685   6.160 -0.7935 -0.2288  0.8824
  209en-    HQM 7505   2.875   1.732   5.938  0.1956  1.1812 -2.6390
  209en-    HQM 7506   2.525   1.632   5.518 -0.7643  0.7069  0.0892
  209en-    CQM 7507   2.718   1.724   5.474 -0.1502  0.7077 -0.2846
  209en-    CQM 7508   2.839   1.768   5.532 -0.0279 -0.9998  0.4085
  209en-    CQM 7509   2.939   1.826   5.451 -0.1277  0.4960 -0.3328
  209en-    CQM 7510   2.915   1.829   5.314  0.3107 -0.1077 -0.7131
  209en-    CQM 7511   3.017   1.874   5.231 -0.3719  0.3844  0.1183
  209en-    CQM 7512   2.997   1.876   5.091 -0.0172 -0.1628  0.3964
  209en-    CQM 7513   2.879   1.821   5.035 -0.3238  0.8000  0.5030
  209en-    CQM 7514   2.771   1.789   5.120 -0.0940  0.2526  0.3257
  209en-    CQM 7515   2.790   1.796   5.258  0.2308  0.0361  0.1280
  209en-    CQM 7516   2.695   1.739   5.339  0.4050 -0.8449 -0.4058
  209en-    HQM 7517   2.604   1.713   5.285  0.8068 -0.2478 -1.3635
  209en-    HQM 7518   2.680   1.758   5.071 -0.0664 -0.0867  0.4804
  209en-    HQM 7519   2.869   1.813   4.928  0.2142 -0.8042  0.5659
  209en-    HQM 7520   3.079   1.900   5.024  1.4232 -1.2214  1.7491
  209en-    HQM 7521   3.109   1.911   5.274 -0.8061  2.0373 -0.3460
  209en-    HQM 7522   3.035   1.857   5.491  0.5369 -0.0408 -1.4843
  209en-    CQM 7523   2.870   1.753   5.668  0.6019  0.6247 -0.6512
  209en-    HQM 7524   2.967   1.784   5.704  0.3757  2.0435 -1.2554
  210en-    CQM 7525   2.905   1.318   5.737 -0.2147  0.1228  0.4319
  210en-    CQM 7526   2.812   1.320   5.838  0.0430  0.0909 -0.8220
  210en-    CQM 7527   2.836   1.266   5.965 -0.6396  0.7316  0.7959
  210en-    CQM 7528   2.737   1.265   6.060 -0.0542  0.0313 -0.6273
  210en-    CQM 7529   2.759   1.196   6.182  0.5238 -0.0293  0.2999
  210en-    CQM 7530   2.882   1.143   6.209  0.3628  0.3013 -0.7669
  210en-    CQM 7531   2.986   1.145   6.114 -0.2025  0.5137 -0.5179
  210en-    CQM 7532   2.964   1.204   5.987 -0.3323 -0.2028 -1.5386
  210en-    CQM 7533   3.067   1.202   5.888  0.0130  0.7045  0.2843
  210en-    CQM 7534   3.035   1.259   5.759  0.1360 -0.1837 -1.3198
  210en-    CQM 7535   2.882   1.382   5.617 -0.2689 -0.0129  0.5957
  210en-    HQM 7536   2.715   1.365   5.822 -0.1244  0.3520  0.7719
  210en-    HQM 7537   2.639   1.309   6.044  0.1585 -0.4827 -3.4706
  210en-    HQM 7538   2.683   1.192   6.259  1.7401 -1.8112  1.4360
  210en-    HQM 7539   2.906   1.102   6.307  0.9600  0.1432 -0.9730
  210en-    HQM 7540   3.079   1.093   6.134  0.5770  1.7760 -0.7508
  210en-    HQM 7541   3.164   1.156   5.903  0.0708  0.7324  0.0055
  210en-    HQM 7542   2.787   1.432   5.607  0.1849  0.4927 -1.4110
  210en-    CQM 7543   2.980   1.383   5.512 -0.5501  0.3338 -0.1620
  210en-    CQM 7544   3.100   1.314   5.527 -0.9508  1.0375 -0.2830
  210en-    CQM 7545   3.201   1.318   5.426  0.7957  0.5496  0.1526
  210en-    CQM 7546   3.180   1.396   5.308  0.3938 -0.1725  0.1742
  210en-    CQM 7547   3.275   1.403   5.203  0.0120  0.0864 -1.1030
  210en-    CQM 7548   3.246   1.478   5.084  0.0332  0.1880  0.5899
  210en-    CQM 7549   3.124   1.539   5.064 -0.1547  0.0217  0.7949
  210en-    CQM 7550   3.028   1.527   5.164 -0.3270  0.3248  0.2783
  210en-    CQM 7551   3.056   1.462   5.287 -0.3390 -0.3913 -0.6628
  210en-    CQM 7552   2.959   1.455   5.391  0.6475  0.3538 -0.4963
  210en-    HQM 7553   2.860   1.499   5.377  0.4158 -0.0395 -0.1122
  210en-    HQM 7554   2.935   1.580   5.145 -0.3637 -0.4657 -1.8907
  210en-    HQM 7555   3.100   1.602   4.978 -0.9996  0.8075  1.5914
  210en-    HQM 7556   3.310   1.475   4.996  2.3307 -1.5297  2.2640
  210en-    HQM 7557   3.360   1.336   5.214 -0.9086 -0.8537  0.6439
  210en-    HQM 7558   3.301   1.287   5.454 -0.1055  0.2685  3.2581
  210en-    CQM 7559   3.127   1.253   5.654  0.4783 -0.0663  0.3165
  210en-    HQM 7560   3.220   1.205   5.683  0.2878 -0.9012 -0.4331
  211en-    CQM 7561   2.553   1.085   0.050 -0.0876  0.8378 -0.0628
  211en-    CQM 7562   2.447   1.041   0.128 -0.5360 -0.5186  0.0297
  211en-    CQM 7563   2.463   1.031   0.265  0.0220  0.1248 -0.0128
  211en-    CQM 7564   2.362   0.978   0.346 -0.0322 -0.0205 -0.0469
  211en-    CQM 7565   2.380   0.966   0.488  0.5374  1.0859  0.1554
  211en-    CQM 7566   2.500   1.002   0.545 -0.1158  0.4250  1.0593
  211en-    CQM 7567   2.597   1.063   0.467 -0.4869 -0.2294  1.0468
  211en-    CQM 7568   2.583   1.073   0.329  0.0079 -0.2684  0.3751
  211en-    CQM 7569   2.686   1.135   0.249 -0.5401 -0.0609  0.5941
  211en-    CQM 7570   2.671   1.144   0.111 -0.7173 -0.0281  0.2944
  211en-    CQM 7571   2.532   1.096  -0.084  0.2676 -0.1259  0.1242
  211en-    HQM 7572   2.354   1.006   0.083 -2.1724  0.2011  2.7222
  211en-    HQM 7573   2.268   0.944   0.303  0.4932  1.9438 -2.8423
  211en-    HQM 7574   2.297   0.923   0.543  0.7901  0.6906  0.2278
  211en-    HQM 7575   2.503   1.002   0.653  2.1593 -0.4658  1.0198
  211en-    HQM 7576   2.689   1.097   0.512 -0.0132  1.6800 -1.2403
  211en-    HQM 7577   2.782   1.166   0.287 -1.1188  0.7054  1.4508
  211en-    HQM 7578   2.439   1.060  -0.125 -1.4008 -0.3554  3.8960
  211en-    CQM 7579   2.631   1.164  -0.157  0.1972  0.3818  0.4096
  211en-    CQM 7580   2.750   1.213  -0.106 -0.6032 -0.0575  0.3316
  211en-    CQM 7581   2.849   1.274  -0.187 -0.3423 -0.1255  0.1316
  211en-    CQM 7582   2.834   1.276  -0.328  0.6900  0.2930 -0.1757
  211en-    CQM 7583   2.927   1.325  -0.417  0.3147 -0.0007  0.3827
  211en-    CQM 7584   2.892   1.339  -0.548  0.0762  1.0175  0.6446
  211en-    CQM 7585   2.769   1.294  -0.603  0.6240  0.2409 -0.0597
  211en-    CQM 7586   2.680   1.240  -0.515 -0.2083  0.5438 -0.4276
  211en-    CQM 7587   2.707   1.231  -0.379  0.4207 -0.2293 -0.3205
  211en-    CQM 7588   2.611   1.175  -0.292  0.9020 -0.2001 -0.0413
  211en-    HQM 7589   2.519   1.133  -0.331  1.3894 -3.5347  2.2356
  211en-    HQM 7590   2.580   1.215  -0.548 -0.2152 -1.0458  0.7031
  211en-    HQM 7591   2.737   1.317  -0.704 -0.9477 -0.3184  0.2938
  211en-    HQM 7592   2.959   1.385  -0.619  1.6486  0.0791  1.4787
  211en-    HQM 7593   3.024   1.363  -0.386  0.4586 -0.0363 -0.0103
  211en-    HQM 7594   2.942   1.302  -0.138  0.5483 -2.6403 -0.0346
  211en-    CQM 7595   2.773   1.203   0.030  0.2149  0.3205  0.2885
  211en-    HQM 7596   2.865   1.240   0.073  1.6944 -2.3089 -0.5439
  212en-    CQM 7597   2.796   0.752   0.111  0.2243 -0.9670 -0.2138
  212en-    CQM 7598   2.699   0.751   0.211  0.5317 -0.5985 -0.0291
  212en-    CQM 7599   2.720   0.684   0.332  0.0146  0.0823  0.5349
  212en-    CQM 7600   2.629   0.703   0.434  0.1287  0.0683 -0.5180
  212en-    CQM 7601   2.652   0.630   0.558  0.6183 -0.0517  0.2209
  212en-    CQM 7602   2.767   0.551   0.576 -0.4432  0.0778 -0.4220
  212en-    CQM 7603   2.868   0.553   0.473  0.1150  0.5689 -0.5976
  212en-    CQM 7604   2.843   0.622   0.352 -1.3445 -0.1078 -0.5391
  212en-    CQM 7605   2.942   0.623   0.254  0.0277 -0.3081  0.1502
  212en-    CQM 7606   2.921   0.687   0.131  0.5004 -0.0753  0.2550
  212en-    CQM 7607   2.779   0.827  -0.008 -0.3166 -0.3460  0.1560
  212en-    HQM 7608   2.612   0.816   0.197  0.0701 -1.6576 -2.4803
  212en-    HQM 7609   2.541   0.764   0.418 -1.8388 -2.5141  0.1079
  212en-    HQM 7610   2.574   0.632   0.633  0.8654  1.6554  0.4410
  212en-    HQM 7611   2.780   0.490   0.665  0.9648 -1.6589 -1.7900
  212en-    HQM 7612   2.960   0.495   0.483 -0.3737 -0.0528  0.4405
  212en-    HQM 7613   3.038   0.576   0.270  0.2533 -0.5305 -1.7668
  212en-    HQM 7614   2.685   0.878  -0.028 -0.0057 -0.7186 -2.4274
  212en-    CQM 7615   2.874   0.818  -0.108 -0.9694  0.0906  0.7252
  212en-    CQM 7616   2.999   0.755  -0.083  0.2072 -0.8175  0.1499
  212en-    CQM 7617   3.098   0.759  -0.177  0.5262  0.8093  0.2811
  212en-    CQM 7618   3.068   0.822  -0.301 -0.0686  0.3213 -0.3014
  212en-    CQM 7619   3.168   0.838  -0.395  0.0856  0.3233 -0.4318
  212en-    CQM 7620   3.145   0.898  -0.518  0.3443 -0.2254 -0.4211
  212en-    CQM 7621   3.021   0.954  -0.548  0.6447  0.5841  0.0675
  212en-    CQM 7622   2.923   0.953  -0.446 -0.0475 -1.0790 -0.0490
  212en-    CQM 7623   2.948   0.891  -0.322  0.0428 -0.1432 -0.4700
  212en-    CQM 7624   2.850   0.887  -0.225  0.2472  0.0285 -0.1181
  212en-    HQM 7625   2.756   0.936  -0.246  0.6287  0.9332  0.2622
  212en-    HQM 7626   2.827   1.001  -0.459  2.1756  3.7084  0.1402
  212en-    HQM 7627   3.006   0.992  -0.648  2.1921 -2.2498 -1.2968
  212en-    HQM 7628   3.215   0.887  -0.600  1.0322  1.8816 -0.1572
  212en-    HQM 7629   3.263   0.788  -0.379 -1.1536 -1.6035  1.1862
  212en-    HQM 7630   3.187   0.699  -0.162  0.2622  0.0892 -0.9522
  212en-    CQM 7631   3.025   0.695   0.044 -0.1167  0.8878 -0.3939
  212en-    HQM 7632   3.121   0.649   0.064 -0.6768  0.3661  1.1084
  213en-    CQM 7633   2.568   1.420   1.507  0.0056 -0.6076  0.6148
  213en-    CQM 7634   2.471   1.359   1.591  0.0771 -0.0690  0.4069
  213en-    CQM 7635   2.504   1.342   1.726 -0.0066 -0.3800 -0.0776
  213en-    CQM 7636   2.408   1.282   1.816 -0.0940  0.0689  0.2937
  213en-    CQM 7637   2.433   1.258   1.952  0.2552  0.1660 -0.6862
  213en-    CQM 7638   2.552   1.317   2.006  0.0706  0.2374 -0.3244
  213en-    CQM 7639   2.644   1.381   1.917 -0.6279 -0.0899  0.0950
  213en-    CQM 7640   2.624   1.388   1.781 -0.3906  0.3311  0.1051
  213en-    CQM 7641   2.723   1.443   1.697  0.3739 -0.0946 -0.2754
  213en-    CQM 7642   2.693   1.456   1.560  0.0186 -0.2129 -0.8448
  213en-    CQM 7643   2.544   1.424   1.369  0.3119 -0.3515 -0.1131
  213en-    HQM 7644   2.381   1.321   1.544  1.3777 -1.6647 -0.8482
  213en-    HQM 7645   2.327   1.230   1.767 -0.5215  0.6403  0.3943
  213en-    HQM 7646   2.361   1.211   2.019  0.3818 -0.1045 -0.7403
  213en-    HQM 7647   2.563   1.304   2.113 -2.8948 -0.6700 -0.0637
  213en-    HQM 7648   2.737   1.418   1.958  1.4205 -2.4080 -2.1919
  213en-    HQM 7649   2.823   1.459   1.736  0.1184 -1.0341  0.7914
  213en-    HQM 7650   2.458   1.377   1.322  1.4709  0.0194 -2.6897
  213en-    CQM 7651   2.642   1.473   1.282 -0.5609  0.1750  0.3472
  213en-    CQM 7652   2.768   1.519   1.333 -0.0110  0.2439 -0.6655
  213en-    CQM 7653   2.868   1.569   1.251 -0.3371  0.1620 -0.3213
  213en-    CQM 7654   2.843   1.579   1.111  0.2616  0.3954  0.5458
  213en-    CQM 7655   2.934   1.642   1.025 -0.0444  0.1876  0.6855
  213en-    CQM 7656   2.895   1.665   0.890  0.4269  0.2326  0.1899
  213en-    CQM 7657   2.769   1.625   0.838  0.1080 -0.1005  0.6520
  213en-    CQM 7658   2.681   1.559   0.924  0.2815 -0.8773  0.5269
  213en-    CQM 7659   2.718   1.539   1.060  0.0517 -0.4186  0.3026
  213en-    CQM 7660   2.622   1.483   1.150  0.2816  0.8205 -0.2103
  213en-    HQM 7661   2.528   1.457   1.102  1.3093 -0.7798 -1.4128
  213en-    HQM 7662   2.582   1.531   0.891 -0.1358 -0.7902  1.6717
  213en-    HQM 7663   2.744   1.642   0.734 -1.3193 -1.9027  0.6788
  213en-    HQM 7664   2.958   1.727   0.827 -1.2962  0.7289 -1.1073
  213en-    HQM 7665   3.030   1.681   1.058 -0.1756  1.6902 -0.6152
  213en-    HQM 7666   2.966   1.589   1.293  0.2016  2.1706 -2.4337
  213en-    CQM 7667   2.790   1.507   1.475 -0.4356  0.4477 -0.7234
  213en-    HQM 7668   2.886   1.532   1.519 -1.2225  2.0219  0.1491
  214en-    CQM 7669   2.878   1.095   1.501 -0.4078  0.5461 -0.2053
  214en-    CQM 7670   2.782   1.099   1.606 -0.3006  0.2774 -0.0739
  214en-    CQM 7671   2.803   1.018   1.724  0.1003  0.1480 -0.2995
  214en-    CQM 7672   2.708   1.020   1.824 -0.3351 -0.5678 -0.2149
  214en-    CQM 7673   2.731   0.937   1.938 -0.0486 -1.0075  0.3104
  214en-    CQM 7674   2.855   0.876   1.956  0.3896  0.4112 -0.6400
  214en-    CQM 7675   2.951   0.873   1.852  0.4639  0.4294  0.2194
  214en-    CQM 7676   2.927   0.954   1.742 -0.1276  0.5701 -0.6571
  214en-    CQM 7677   3.027   0.963   1.641  0.0855  0.4865  0.2544
  214en-    CQM 7678   3.005   1.036   1.523 -0.6438 -0.4636 -0.2461
  214en-    CQM 7679   2.845   1.157   1.381 -0.5418  0.1365  0.3396
  214en-    HQM 7680   2.691   1.157   1.590  0.1693  1.6481  2.0397
  214en-    HQM 7681   2.622   1.086   1.820  0.5862  0.5409 -2.9355
  214en-    HQM 7682   2.661   0.937   2.021 -1.4188 -1.9717 -0.8156
  214en-    HQM 7683   2.872   0.830   2.052 -0.2458 -0.5281 -0.9664
  214en-    HQM 7684   3.049   0.828   1.871 -0.7994 -2.1495  0.8245
  214en-    HQM 7685   3.126   0.924   1.661 -0.0547 -0.3041 -0.5599
  214en-    HQM 7686   2.752   1.212   1.368  0.2816  1.0536 -1.8679
  214en-    CQM 7687   2.933   1.146   1.273  1.0898 -0.5255 -0.0041
  214en-    CQM 7688   3.061   1.089   1.286  0.0289  0.4879 -0.5601
  214en-    CQM 7689   3.157   1.092   1.183  0.4904  0.7032  0.3297
  214en-    CQM 7690   3.122   1.148   1.063 -0.4631 -0.0203 -0.4262
  214en-    CQM 7691   3.221   1.149   0.959 -0.3929 -0.2844  1.0896
  214en-    CQM 7692   3.196   1.210   0.840  0.1396 -0.2778  0.1389
  214en-    CQM 7693   3.068   1.269   0.823  0.0206 -0.5584  0.6697
  214en-    CQM 7694   2.972   1.284   0.925 -0.6217  0.1836 -0.0097
  214en-    CQM 7695   2.997   1.219   1.049 -1.0607  0.4285 -0.6838
  214en-    CQM 7696   2.903   1.215   1.155  0.0962  0.0939 -0.2338
  214en-    HQM 7697   2.813   1.274   1.146 -0.5785 -0.8148  0.5205
  214en-    HQM 7698   2.875   1.331   0.908  0.7277  2.8433 -0.6121
  214en-    HQM 7699   3.038   1.318   0.730 -0.8260 -1.1356  0.6299
  214en-    HQM 7700   3.260   1.192   0.754 -0.3466  1.7459 -0.6662
  214en-    HQM 7701   3.311   1.089   0.972 -0.0376  0.3812  1.7157
  214en-    HQM 7702   3.248   1.033   1.193 -0.0086 -0.1840 -0.2842
  214en-    CQM 7703   3.092   1.033   1.410 -0.0851  0.0186 -0.2318
  214en-    HQM 7704   3.183   0.976   1.422 -0.1374  0.3674  1.9880
  215en-    CQM 7705   2.615   1.740   2.888  0.5577  0.4796  0.1645
  215en-    CQM 7706   2.510   1.690   2.970 -0.1721  1.0162  0.2880
  215en-    CQM 7707   2.534   1.692   3.113 -0.0217 -0.8826  0.6543
  215en-    CQM 7708   2.442   1.633   3.202  0.3687  0.4623 -0.1998
  215en-    CQM 7709   2.471   1.630   3.337 -0.1929  0.0077  0.3404
  215en-    CQM 7710   2.593   1.677   3.378  0.3329  0.4956 -0.1484
  215en-    CQM 7711   2.680   1.742   3.295 -0.2184 -0.7605 -0.0929
  215en-    CQM 7712   2.652   1.746   3.161  0.0176 -0.4216  0.2099
  215en-    CQM 7713   2.746   1.804   3.084  0.7675 -0.5161  0.0907
  215en-    CQM 7714   2.730   1.804   2.948  0.2446 -0.0827 -0.2465
  215en-    CQM 7715   2.598   1.748   2.755  0.2323 -0.1889  0.4076
  215en-    HQM 7716   2.419   1.654   2.923  0.5048 -0.0005 -0.2591
  215en-    HQM 7717   2.348   1.589   3.170  1.2887 -1.3003 -0.5357
  215en-    HQM 7718   2.395   1.597   3.407 -0.9664  1.0939  0.0289
  215en-    HQM 7719   2.613   1.681   3.484 -1.7024  0.1761  0.2815
  215en-    HQM 7720   2.770   1.786   3.337 -0.0866 -0.8944 -0.2340
  215en-    HQM 7721   2.841   1.841   3.122  0.7056  0.8249 -1.0034
  215en-    HQM 7722   2.505   1.707   2.715  0.9182  0.2637 -1.7160
  215en-    CQM 7723   2.688   1.819   2.670  0.2602  0.9247  0.8984
  215en-    CQM 7724   2.810   1.870   2.728 -1.3173  0.9427 -0.5955
  215en-    CQM 7725   2.907   1.925   2.652 -0.5281  0.2932 -0.0219
  215en-    CQM 7726   2.887   1.933   2.513 -0.0914  0.2344  0.8786
  215en-    CQM 7727   2.989   1.990   2.434  0.3344  0.8056 -0.2269
  215en-    CQM 7728   2.967   2.017   2.298  0.1895  0.3000  0.1272
  215en-    CQM 7729   2.851   1.971   2.241  0.4369 -0.2676  0.2027
  215en-    CQM 7730   2.751   1.903   2.316  0.3212 -0.8397  0.6095
  215en-    CQM 7731   2.766   1.886   2.450 -0.2455 -0.0547 -0.6999
  215en-    CQM 7732   2.670   1.825   2.528 -0.1282 -0.3745 -0.0308
  215en-    HQM 7733   2.580   1.786   2.483 -1.2035  0.9245  0.9505
  215en-    HQM 7734   2.657   1.874   2.270  0.9852  1.6565 -2.5297
  215en-    HQM 7735   2.840   2.000   2.137  0.1634  0.5624  0.4565
  215en-    HQM 7736   3.047   2.064   2.242  0.9379 -0.8577  0.2040
  215en-    HQM 7737   3.086   2.015   2.477  1.2762 -0.0037 -1.7987
  215en-    HQM 7738   3.003   1.958   2.691 -0.0904  0.5953 -1.3092
  215en-    CQM 7739   2.832   1.866   2.869  0.2717 -0.3291 -0.8917
  215en-    HQM 7740   2.924   1.907   2.911 -0.7602  1.4897 -0.3512
  216en-    CQM 7741   2.903   1.419   2.919 -0.4525  0.1709  0.0387
  216en-    CQM 7742   2.806   1.423   3.017  0.3490 -0.1544 -0.0444
  216en-    CQM 7743   2.829   1.359   3.136  0.3441  0.3395  0.0532
  216en-    CQM 7744   2.737   1.373   3.244  0.1028  0.5702 -0.5691
  216en-    CQM 7745   2.768   1.307   3.365  0.2693  0.0299  0.3476
  216en-    CQM 7746   2.876   1.218   3.379  0.2761 -0.0469 -0.3267
  216en-    CQM 7747   2.967   1.208   3.278 -0.5864 -0.5057  0.0607
  216en-    CQM 7748   2.944   1.282   3.161 -0.0868  0.5869  0.4877
  216en-    CQM 7749   3.044   1.281   3.060 -0.1002  0.3308  0.3333
  216en-    CQM 7750   3.025   1.352   2.941  0.5818 -0.1991  0.0934
  216en-    CQM 7751   2.886   1.501   2.806  0.2313 -0.0049 -0.6989
  216en-    HQM 7752   2.713   1.475   2.998 -1.5901 -3.6085 -0.3412
  216en-    HQM 7753   2.653   1.442   3.238 -0.5858 -0.1744  0.3295
  216en-    HQM 7754   2.704   1.324   3.451 -0.4680 -0.6060 -0.0723
  216en-    HQM 7755   2.891   1.156   3.466 -0.4577 -0.8262 -0.7389
  216en-    HQM 7756   3.055   1.146   3.292 -1.3169 -1.2449  1.4894
  216en-    HQM 7757   3.140   1.242   3.090 -0.2303 -0.3799 -0.1475
  216en-    HQM 7758   2.790   1.544   2.778 -0.1353 -1.2751 -1.4442
  216en-    CQM 7759   2.991   1.495   2.710  0.0246  0.0245 -0.0000
  216en-    CQM 7760   3.115   1.425   2.729 -0.0699 -0.2589  0.1253
  216en-    CQM 7761   3.214   1.420   2.627 -0.1589 -0.0240 -0.1598
  216en-    CQM 7762   3.194   1.484   2.506 -0.6664 -0.0522  0.6382
  216en-    CQM 7763   3.292   1.476   2.404 -0.4299 -0.3139  1.3417
  216en-    CQM 7764   3.274   1.548   2.280 -0.1558 -0.0938 -0.2435
  216en-    CQM 7765   3.151   1.617   2.261 -0.0635 -0.2882  0.5107
  216en-    CQM 7766   3.055   1.625   2.363 -0.4068 -0.4013  0.4242
  216en-    CQM 7767   3.076   1.555   2.486 -0.3413 -0.0700 -0.0025
  216en-    CQM 7768   2.974   1.551   2.581 -0.0198 -0.0141  0.3297
  216en-    HQM 7769   2.880   1.603   2.566  0.3930  0.8117  0.6028
  216en-    HQM 7770   2.960   1.677   2.354 -0.0051  0.5426  1.5279
  216en-    HQM 7771   3.134   1.679   2.174  1.2427 -0.8389 -0.1494
  216en-    HQM 7772   3.354   1.557   2.207 -0.6175  3.4575 -0.3997
  216en-    HQM 7773   3.384   1.421   2.424  0.4144  0.9023  0.9043
  216en-    HQM 7774   3.299   1.360   2.660 -0.7971 -0.1025  1.3879
  216en-    CQM 7775   3.128   1.354   2.845 -0.0026 -0.2653 -0.0528
  216en-    HQM 7776   3.223   1.304   2.864 -0.6200 -1.1474  0.7708
  217en-    CQM 7777   2.666   2.120   4.253 -0.9282 -0.3786  0.2688
  217en-    CQM 7778   2.571   2.066   4.339  0.2252 -0.4186 -0.1576
  217en-    CQM 7779   2.589   2.052   4.478  0.6885  0.3854  0.3234
  217en-    CQM 7780   2.494   2.003   4.565 -0.0822  0.2022 -0.3537
  217en-    CQM 7781   2.523   1.975   4.697 -0.3988 -0.1968  0.2145
  217en-    CQM 7782   2.651   2.014   4.754 -0.3927  0.3748 -0.3776
  217en-    CQM 7783   2.742   2.081   4.670 -0.1817 -0.2696  0.9394
  217en-    CQM 7784   2.714   2.089   4.533 -0.1468 -0.0123 -0.4292
  217en-    CQM 7785   2.815   2.136   4.447 -0.5877  0.2144  0.2710
  217en-    CQM 7786   2.787   2.159   4.310  0.1259 -0.1188  0.1890
  217en-    CQM 7787   2.646   2.131   4.120  0.4155 -0.8645  0.6581
  217en-    HQM 7788   2.476   2.025   4.307  0.0833  0.9963 -1.5782
  217en-    HQM 7789   2.410   1.948   4.524  0.4361 -1.2343  0.4600
  217en-    HQM 7790   2.440   1.945   4.761  0.0634 -0.3883  0.7278
  217en-    HQM 7791   2.672   1.995   4.859  1.7997  0.9786 -0.6868
  217en-    HQM 7792   2.837   2.121   4.705  0.4001  0.2178 -1.1246
  217en-    HQM 7793   2.913   2.161   4.488 -0.4733  0.0937  0.0697
  217en-    HQM 7794   2.550   2.103   4.077 -0.3051  0.3242  1.4315
  217en-    CQM 7795   2.748   2.174   4.034 -0.7315  0.1924 -0.3485
  217en-    CQM 7796   2.874   2.210   4.092  0.0829  0.3958  0.5119
  217en-    CQM 7797   2.969   2.258   4.006  0.0605 -0.0827 -0.3909
  217en-    CQM 7798   2.950   2.265   3.863  0.6205  0.0075  0.1556
  217en-    CQM 7799   3.052   2.317   3.780 -0.1500  0.5581 -0.6843
  217en-    CQM 7800   3.030   2.328   3.641 -0.2442  0.2566 -0.5365
  217en-    CQM 7801   2.906   2.298   3.585  0.3019 -0.4990 -0.2520
  217en-    CQM 7802   2.797   2.254   3.667 -0.1372 -0.3247 -0.8678
  217en-    CQM 7803   2.817   2.246   3.810  1.1633  0.4841  0.2606
  217en-    CQM 7804   2.719   2.197   3.898  0.2181 -0.2113  0.1356
  217en-    HQM 7805   2.618   2.171   3.870  0.5763 -1.5527  0.0452
  217en-    HQM 7806   2.702   2.235   3.618 -1.2453  2.4666  0.1404
  217en-    HQM 7807   2.887   2.311   3.479  0.1985  0.2690 -0.1439
  217en-    HQM 7808   3.105   2.369   3.574 -2.3809  0.4856 -2.8662
  217en-    HQM 7809   3.140   2.352   3.833 -0.8561 -0.6858  1.3670
  217en-    HQM 7810   3.065   2.280   4.053 -0.4557 -0.2194  0.7411
  217en-    CQM 7811   2.895   2.204   4.231  0.4517  0.0320  0.9188
  217en-    HQM 7812   2.983   2.253   4.271  0.4914  1.3447 -0.7206
  218en-    CQM 7813   2.936   1.764   4.327  0.4008 -0.0129 -0.2344
  218en-    CQM 7814   2.840   1.762   4.429 -0.3082  0.3052  0.5871
  218en-    CQM 7815   2.865   1.691   4.542  0.4600  0.6143  0.0797
  218en-    CQM 7816   2.769   1.692   4.647  0.1279  0.3821  0.0801
  218en-    CQM 7817   2.790   1.607   4.755  0.5296  0.4493  0.6961
  218en-    CQM 7818   2.920   1.545   4.776  0.2603 -0.4976  0.2959
  218en-    CQM 7819   3.016   1.548   4.677 -0.7912  0.1519  0.2092
  218en-    CQM 7820   2.989   1.618   4.556  0.2371 -0.0460 -0.2022
  218en-    CQM 7821   3.082   1.620   4.459  0.3074 -0.0576 -0.1812
  218en-    CQM 7822   3.054   1.694   4.346 -0.0991  0.5250  0.1757
  218en-    CQM 7823   2.914   1.834   4.204  1.0540  0.1786  0.1620
  218en-    HQM 7824   2.750   1.822   4.421 -1.3024 -0.8660  2.7007
  218en-    HQM 7825   2.673   1.742   4.638  0.0867  0.7299  2.2353
  218en-    HQM 7826   2.718   1.604   4.837 -0.4728 -2.5810 -0.2207
  218en-    HQM 7827   2.930   1.480   4.862  0.6734 -1.3693 -0.4097
  218en-    HQM 7828   3.097   1.477   4.686 -1.4029 -0.4906  0.6962
  218en-    HQM 7829   3.172   1.560   4.471 -0.7914 -1.4728  1.1745
  218en-    HQM 7830   2.824   1.892   4.190  0.3399 -1.0258 -0.3131
  218en-    CQM 7831   3.014   1.839   4.104  0.0990 -0.2772 -0.3827
  218en-    CQM 7832   3.136   1.773   4.133 -0.2465 -0.8236  0.4803
  218en-    CQM 7833   3.239   1.753   4.034  0.4035  0.4421 -0.0040
  218en-    CQM 7834   3.210   1.822   3.911 -0.0947  1.0251 -0.3356
  218en-    CQM 7835   3.307   1.808   3.809 -0.0679  0.0799  0.6595
  218en-    CQM 7836   3.294   1.883   3.689 -0.6162 -0.2314 -0.7361
  218en-    CQM 7837   3.180   1.962   3.663 -0.3174 -0.1192  0.6024
  218en-    CQM 7838   3.078   1.969   3.758 -0.5390  0.6029 -0.3668
  218en-    CQM 7839   3.091   1.892   3.884  0.2582  0.0398 -0.0032
  218en-    CQM 7840   2.996   1.900   3.979  0.1142 -0.0603 -0.2002
  218en-    HQM 7841   2.901   1.948   3.961  0.0276  0.3281  1.2531
  218en-    HQM 7842   2.988   2.022   3.731 -1.0992  0.3240  0.9172
  218en-    HQM 7843   3.180   2.031   3.580 -2.5138 -0.6790  0.0901
  218en-    HQM 7844   3.372   1.897   3.615  0.2630 -1.9761 -0.1757
  218en-    HQM 7845   3.392   1.742   3.823 -0.4591 -1.1159 -2.1551
  218en-    HQM 7846   3.325   1.689   4.048  0.1592  0.5961  2.4079
  218en-    CQM 7847   3.152   1.699   4.248 -0.0386 -0.1920 -0.3662
  218en-    HQM 7848   3.248   1.649   4.258 -0.4752 -0.9347  0.1616
  219en-    CQM 7849   2.739   2.428   5.689  0.2050 -0.3326 -0.7412
  219en-    CQM 7850   2.641   2.371   5.769 -0.2742  0.4451 -0.2809
  219en-    CQM 7851   2.657   2.361   5.904 -0.4515 -0.1545 -0.1884
  219en-    CQM 7852   2.554   2.318   5.988 -0.0481 -0.8552  0.5560
  219en-    CQM 7853   2.571   2.326   6.129  0.2941  0.2050  0.8570
  219en-    CQM 7854   2.689   2.366   6.187 -0.4183 -0.4447 -0.6439
  219en-    CQM 7855   2.799   2.400   6.105  0.8164 -0.2238 -0.2183
  219en-    CQM 7856   2.777   2.402   5.965  0.5013  0.4222  0.2476
  219en-    CQM 7857   2.876   2.455   5.885  0.2268 -0.6669 -0.2760
  219en-    CQM 7858   2.858   2.470   5.745 -0.2641  0.4757  0.3040
  219en-    CQM 7859   2.713   2.446   5.554  0.1074  1.2889 -0.1839
  219en-    HQM 7860   2.548   2.340   5.723 -0.0037 -1.0651  0.1556
  219en-    HQM 7861   2.457   2.283   5.951 -1.7662  0.3999  3.6713
  219en-    HQM 7862   2.491   2.283   6.190 -1.0423 -0.6619 -1.4387
  219en-    HQM 7863   2.690   2.370   6.296 -1.3710 -0.6857 -0.6165
  219en-    HQM 7864   2.896   2.426   6.146  0.3432 -1.7508  1.9340
  219en-    HQM 7865   2.968   2.498   5.923 -0.3003 -0.7328  1.0978
  219en-    HQM 7866   2.625   2.396   5.516  0.7740 -0.2500  0.2496
  219en-    CQM 7867   2.806   2.495   5.463  0.1489  0.1224  0.0157
  219en-    CQM 7868   2.927   2.545   5.520  0.4635 -0.1268 -0.6074
  219en-    CQM 7869   3.025   2.605   5.441  0.0430 -0.0333  1.0895
  219en-    CQM 7870   3.005   2.611   5.305  0.6490  0.7112  0.3610
  219en-    CQM 7871   3.100   2.674   5.226 -0.6214 -0.1203  0.3278
  219en-    CQM 7872   3.079   2.695   5.092 -0.0562  0.3208 -0.0961
  219en-    CQM 7873   2.964   2.647   5.026  0.3842  0.3622 -0.0660
  219en-    CQM 7874   2.868   2.582   5.104  0.1108 -0.2840 -0.2236
  219en-    CQM 7875   2.881   2.567   5.246  0.1937  0.2555  1.0346
  219en-    CQM 7876   2.778   2.519   5.330 -0.5549  0.1697 -0.6011
  219en-    HQM 7877   2.685   2.492   5.280 -1.2943  0.7007  0.4864
  219en-    HQM 7878   2.783   2.534   5.056  0.4465 -2.0594  0.9073
  219en-    HQM 7879   2.951   2.655   4.918 -3.4424  0.4281  0.3224
  219en-    HQM 7880   3.156   2.747   5.035 -1.4640  1.5210 -0.9272
  219en-    HQM 7881   3.193   2.708   5.272 -1.2137  1.2559  0.5180
  219en-    HQM 7882   3.115   2.644   5.488  0.6222  0.9364 -0.7293
  219en-    CQM 7883   2.957   2.526   5.656  0.5380 -0.4513 -0.1623
  219en-    HQM 7884   3.056   2.553   5.692  0.1436 -1.1508  1.4877
  220en-    CQM 7885   2.978   2.088   5.722 -0.0840 -0.1701  0.0018
  220en-    CQM 7886   2.874   2.090   5.815  0.0988 -0.3086  0.5851
  220en-    CQM 7887   2.896   2.033   5.939  0.5802  1.1024  0.0711
  220en-    CQM 7888   2.796   2.036   6.037 -1.1109 -0.1830  0.1647
  220en-    CQM 7889   2.817   1.986   6.168 -0.1133  0.0485  0.1277
  220en-    CQM 7890   2.940   1.928   6.200  0.2034 -0.5691  0.1479
  220en-    CQM 7891   3.039   1.915   6.105  0.3081 -0.2305  0.2438
  220en-    CQM 7892   3.021   1.976   5.976  0.0288  0.7860  0.3624
  220en-    CQM 7893   3.123   1.976   5.876 -0.2240 -0.4512 -0.1037
  220en-    CQM 7894   3.102   2.031   5.749 -0.3515  0.4366 -0.0936
  220en-    CQM 7895   2.961   2.155   5.598 -0.3040  0.2348  0.4048
  220en-    HQM 7896   2.780   2.129   5.778 -0.1777 -0.2705  1.3129
  220en-    HQM 7897   2.701   2.081   6.011 -1.3434 -1.2559 -0.8973
  220en-    HQM 7898   2.734   1.989   6.237  0.7466  0.5813  1.1446
  220en-    HQM 7899   2.960   1.896   6.302 -1.0548 -1.1131  0.2304
  220en-    HQM 7900   3.140   1.883   6.132  0.8819 -0.0228 -1.6121
  220en-    HQM 7901   3.217   1.923   5.888 -0.0339  0.0722  0.7484
  220en-    HQM 7902   2.867   2.203   5.575 -1.5332 -1.9711  0.7136
  220en-    CQM 7903   3.070   2.150   5.507 -0.2307 -0.0975  0.3316
  220en-    CQM 7904   3.194   2.087   5.536 -0.9635 -0.0387 -0.9266
  220en-    CQM 7905   3.295   2.080   5.437 -0.8630 -0.2218 -0.6543
  220en-    CQM 7906   3.277   2.133   5.312 -0.7602 -0.0294  0.7165
  220en-    CQM 7907   3.387   2.138   5.225 -0.0841  0.3084  0.3783
  220en-    CQM 7908   3.370   2.192   5.097 -0.7366 -0.2822  0.0337
  220en-    CQM 7909   3.250   2.251   5.056 -0.6658 -0.1294 -0.1333
  220en-    CQM 7910   3.144   2.265   5.150 -0.2800  0.2155 -0.1775
  220en-    CQM 7911   3.154   2.196   5.275 -0.2219 -0.9079  0.1035
  220en-    CQM 7912   3.053   2.207   5.375  0.3791  0.3584 -0.0079
  220en-    HQM 7913   2.951   2.237   5.354 -1.5943 -4.9264  1.3721
  220en-    HQM 7914   3.054   2.309   5.108 -1.2768 -1.8194 -0.2511
  220en-    HQM 7915   3.234   2.288   4.956 -0.7229 -1.2663 -0.5543
  220en-    HQM 7916   3.455   2.180   5.031 -1.6934 -3.6651 -0.6847
  220en-    HQM 7917   3.481   2.091   5.250 -0.9401 -2.6508 -1.5810
  220en-    HQM 7918   3.388   2.030   5.464 -1.7245 -1.8668 -0.6947
  220en-    CQM 7919   3.207   2.025   5.658 -0.5973  0.0582  0.4853
  220en-    HQM 7920   3.299   1.982   5.694  0.1524  1.3803  0.1985
  221en-    CQM 7921   2.612   1.852   0.101 -1.0271  0.1348 -0.1425
  221en-    CQM 7922   2.513   1.811   0.189 -0.0089  0.2628  0.0269
  221en-    CQM 7923   2.534   1.801   0.327  0.4162 -0.3980  1.0342
  221en-    CQM 7924   2.437   1.749   0.407  0.3537  0.0058 -0.1604
  221en-    CQM 7925   2.454   1.753   0.545 -0.1015  0.2058  0.2709
  221en-    CQM 7926   2.576   1.801   0.601 -0.4032 -0.4175 -0.2819
  221en-    CQM 7927   2.686   1.839   0.519  0.0254 -0.0241  0.0487
  221en-    CQM 7928   2.664   1.840   0.379 -0.5354 -0.0781  0.4996
  221en-    CQM 7929   2.761   1.892   0.294  0.0768  0.2050  0.3336
  221en-    CQM 7930   2.738   1.900   0.157 -0.4355  0.0069  0.6292
  221en-    CQM 7931   2.588   1.865  -0.038 -0.1011  0.1367 -0.1388
  221en-    HQM 7932   2.419   1.780   0.144  0.3988 -0.3406 -0.4237
  221en-    HQM 7933   2.348   1.704   0.363  0.6209  0.6387 -1.3784
  221en-    HQM 7934   2.379   1.728   0.618  0.1834  0.8349  0.7861
  221en-    HQM 7935   2.582   1.818   0.708 -0.7103 -0.8360 -0.1978
  221en-    HQM 7936   2.780   1.873   0.559 -0.3677  0.2254  0.7736
  221en-    HQM 7937   2.855   1.925   0.336  0.2789  0.2628 -0.1650
  221en-    HQM 7938   2.492   1.837  -0.080 -0.9555  3.1687 -0.3661
  221en-    CQM 7939   2.675   1.928  -0.124 -0.2116 -0.2226 -0.2949
  221en-    CQM 7940   2.796   1.973  -0.068  0.1095 -0.2627  0.1014
  221en-    CQM 7941   2.899   2.025  -0.148  0.3430 -0.2574  0.0484
  221en-    CQM 7942   2.871   2.046  -0.283  0.1323 -0.0553 -0.0071
  221en-    CQM 7943   2.977   2.089  -0.362  0.4043  0.1632 -0.7306
  221en-    CQM 7944   2.956   2.096  -0.503 -0.2218  0.2446  0.5316
  221en-    CQM 7945   2.828   2.065  -0.562 -0.4041 -0.8480  0.3597
  221en-    CQM 7946   2.731   2.019  -0.479 -0.0836  0.1563 -0.1447
  221en-    CQM 7947   2.750   2.008  -0.340  0.7426 -0.7633 -0.0905
  221en-    CQM 7948   2.651   1.948  -0.257 -0.3874 -0.1677  0.0379
  221en-    HQM 7949   2.560   1.914  -0.304 -1.2351 -0.4125  1.8464
  221en-    HQM 7950   2.632   1.999  -0.518  0.2252  1.3195 -1.5512
  221en-    HQM 7951   2.808   2.060  -0.668 -0.4681 -0.7103  0.3654
  221en-    HQM 7952   3.034   2.130  -0.571 -2.2878  0.5156 -1.8011
  221en-    HQM 7953   3.072   2.115  -0.315  1.0496 -0.4369 -1.6895
  221en-    HQM 7954   2.995   2.062  -0.115  0.6536  0.5526 -1.7241
  221en-    CQM 7955   2.835   1.949   0.069  1.0357 -0.2460  0.7596
  221en-    HQM 7956   2.929   1.987   0.107  0.2710 -0.1466  2.5852
  222en-    CQM 7957   2.871   1.529   0.096  0.7841  0.5684 -0.5640
  222en-    CQM 7958   2.771   1.518   0.198  0.2055 -0.2111  0.2175
  222en-    CQM 7959   2.803   1.462   0.320  0.7377 -0.0758 -0.3032
  222en-    CQM 7960   2.702   1.464   0.421  0.4467  0.0795 -0.0966
  222en-    CQM 7961   2.722   1.382   0.535  0.6696 -0.1720 -1.1724
  222en-    CQM 7962   2.845   1.315   0.554  0.8523  0.8460 -0.0558
  222en-    CQM 7963   2.948   1.329   0.463  0.9960 -0.6287 -0.2064
  222en-    CQM 7964   2.925   1.397   0.339  0.4211  0.6870 -0.5903
  222en-    CQM 7965   3.027   1.406   0.241  1.2095  0.4551  0.5073
  222en-    CQM 7966   2.998   1.471   0.122 -0.4139  0.1758 -0.2069
  222en-    CQM 7967   2.848   1.601  -0.026 -1.1604 -0.4425 -0.0838
  222en-    HQM 7968   2.675   1.567   0.183 -0.9175 -1.8638  1.8136
  222en-    HQM 7969   2.607   1.511   0.400 -0.9311 -3.1624 -1.5349
  222en-    HQM 7970   2.644   1.364   0.607  0.1629  3.0649 -0.8386
  222en-    HQM 7971   2.859   1.246   0.637  1.0804  1.6663  0.5989
  222en-    HQM 7972   3.046   1.287   0.484  1.1336  0.9164  2.4737
  222en-    HQM 7973   3.128   1.369   0.255  2.1678  2.8232 -0.0121
  222en-    HQM 7974   2.750   1.644  -0.040 -1.1635 -0.4115  0.0294
  222en-    CQM 7975   2.949   1.603  -0.121  0.3394 -0.0762 -0.7843
  222en-    CQM 7976   3.068   1.539  -0.097  0.1547  0.4698 -0.3056
  222en-    CQM 7977   3.161   1.528  -0.201  0.4155 -0.1890 -0.0717
  222en-    CQM 7978   3.140   1.592  -0.324  0.0912 -0.1523  0.3940
  222en-    CQM 7979   3.237   1.598  -0.431 -0.0777  0.1823 -0.1910
  222en-    CQM 7980   3.212   1.669  -0.551  0.1211 -0.2875 -0.1188
  222en-    CQM 7981   3.086   1.735  -0.570 -0.4140  0.0895 -0.4701
  222en-    CQM 7982   2.996   1.736  -0.467 -0.0686 -0.8223  0.1777
  222en-    CQM 7983   3.019   1.665  -0.345  0.8662 -0.1711 -0.0319
  222en-    CQM 7984   2.927   1.664  -0.243 -0.6054 -0.2764  0.3141
  222en-    HQM 7985   2.837   1.722  -0.263 -0.4874 -0.0767  0.3582
  222en-    HQM 7986   2.904   1.791  -0.482  1.0018  0.7669 -0.7072
  222en-    HQM 7987   3.065   1.788  -0.663 -1.6067 -0.8164 -0.7234
  222en-    HQM 7988   3.282   1.668  -0.634  0.4395  0.2300  0.1420
  222en-    HQM 7989   3.328   1.540  -0.420  0.2081  0.9395  1.4852
  222en-    HQM 7990   3.256   1.479  -0.183 -0.2879 -1.6319 -0.2284
  222en-    CQM 7991   3.100   1.479   0.026  0.1156 -0.6887  0.3657
  222en-    HQM 7992   3.193   1.430   0.050  1.1574  0.7546 -0.6514
  223en-    CQM 7993   2.639   2.211   1.513 -0.1424 -0.5166  0.7124
  223en-    CQM 7994   2.540   2.148   1.593 -0.2802 -0.0095 -0.0668
  223en-    CQM 7995   2.563   2.136   1.732 -0.2657 -0.4494 -0.9262
  223en-    CQM 7996   2.462   2.080   1.814  0.0726  0.3146 -0.2035
  223en-    CQM 7997   2.486   2.067   1.950 -0.2707  0.3432  0.3266
  223en-    CQM 7998   2.608   2.102   2.002  0.7281  0.7873  0.0401
  223en-    CQM 7999   2.716   2.149   1.926 -0.3769  0.0594  0.1224
  223en-    CQM 8000   2.689   2.175   1.788  0.1879  0.9919  0.2763
  223en-    CQM 8001   2.787   2.224   1.709  0.8221  0.6300 -0.6225
  223en-    CQM 8002   2.764   2.248   1.567  0.4806 -0.2954  1.0028
  223en-    CQM 8003   2.608   2.215   1.377  0.1528  1.0370  0.5171
  223en-    HQM 8004   2.446   2.127   1.543 -1.2297  0.5430  1.4788
  223en-    HQM 8005   2.366   2.047   1.775 -0.9677  2.3449  0.5702
  223en-    HQM 8006   2.405   2.026   2.009 -0.0517 -1.2616 -0.4360
  223en-    HQM 8007   2.618   2.094   2.110  0.7019  0.5622  0.0268
  223en-    HQM 8008   2.811   2.185   1.966 -0.7650 -0.1057  1.2200
  223en-    HQM 8009   2.879   2.266   1.749  0.9162  2.3647 -2.5246
  223en-    HQM 8010   2.512   2.187   1.335  0.3675  3.1265 -1.5336
  223en-    CQM 8011   2.715   2.257   1.288  0.3581  0.0345 -0.7572
  223en-    CQM 8012   2.835   2.297   1.345  0.6966 -0.4451  0.4822
  223en-    CQM 8013   2.932   2.350   1.261 -0.1451 -0.6058 -0.0896
  223en-    CQM 8014   2.912   2.351   1.122  0.3137  0.1854 -0.3479
  223en-    CQM 8015   3.017   2.404   1.048 -0.2651 -0.4806 -0.5241
  223en-    CQM 8016   3.004   2.409   0.908  0.3610  0.1614 -0.4259
  223en-    CQM 8017   2.884   2.362   0.850  0.0141  0.1621 -0.3828
  223en-    CQM 8018   2.777   2.316   0.929  0.1573  0.4101  0.2731
  223en-    CQM 8019   2.790   2.308   1.066 -0.1632  0.0483 -0.2195
  223en-    CQM 8020   2.687   2.258   1.148  0.7874 -0.7618 -0.2418
  223en-    HQM 8021   2.599   2.223   1.095  0.5990  0.3584 -0.6626
  223en-    HQM 8022   2.691   2.284   0.870  0.5892  2.6722 -1.6541
  223en-    HQM 8023   2.882   2.347   0.742  2.9428  0.2484 -0.4881
  223en-    HQM 8024   3.088   2.442   0.848 -0.5217  1.6145 -0.8738
  223en-    HQM 8025   3.110   2.436   1.094  0.2291  0.0982 -1.8918
  223en-    HQM 8026   3.027   2.382   1.304  0.1981 -1.8014  0.0563
  223en-    CQM 8027   2.859   2.289   1.478 -0.3260  0.7650  0.1822
  223en-    HQM 8028   2.955   2.314   1.521  1.0446 -0.3529 -2.1352
  224en-    CQM 8029   2.942   1.863   1.504  0.0639  0.3093 -0.4311
  224en-    CQM 8030   2.846   1.866   1.601  0.3849 -0.7950 -0.3641
  224en-    CQM 8031   2.872   1.791   1.719 -0.4128 -0.0202 -0.3891
  224en-    CQM 8032   2.775   1.809   1.816  0.4385 -0.4670  0.1373
  224en-    CQM 8033   2.790   1.737   1.940  0.5684  0.6727 -0.6316
  224en-    CQM 8034   2.912   1.667   1.969  0.7029  0.2014 -0.4842
  224en-    CQM 8035   3.017   1.664   1.874  0.2069 -0.9965 -1.3527
  224en-    CQM 8036   2.998   1.725   1.752 -0.1418 -0.0969  0.0993
  224en-    CQM 8037   3.096   1.729   1.649  0.5452  1.0418 -0.6248
  224en-    CQM 8038   3.066   1.791   1.524  0.0272  0.4571  0.2379
  224en-    CQM 8039   2.921   1.925   1.381 -0.7013  0.5526 -0.7150
  224en-    HQM 8040   2.755   1.924   1.591 -1.0078 -2.7481  0.6433
  224en-    HQM 8041   2.691   1.877   1.802 -2.3655 -3.5965  1.2756
  224en-    HQM 8042   2.715   1.740   2.018  1.0137  1.0048 -0.2102
  224en-    HQM 8043   2.912   1.605   2.059 -0.2797 -1.1468 -1.3863
  224en-    HQM 8044   3.108   1.616   1.910 -0.7558  0.0978  2.8331
  224en-    HQM 8045   3.186   1.671   1.668 -1.3587 -1.9964 -0.6318
  224en-    HQM 8046   2.825   1.973   1.368 -1.1599  0.4802  1.9910
  224en-    CQM 8047   3.021   1.924   1.281  0.6677  0.0050  0.4972
  224en-    CQM 8048   3.146   1.866   1.308 -0.3902 -0.6031 -0.3057
  224en-    CQM 8049   3.244   1.857   1.204  0.3889 -0.8076 -0.1928
  224en-    CQM 8050   3.213   1.918   1.077 -0.3614 -0.4503 -0.9479
  224en-    CQM 8051   3.293   1.906   0.963 -0.1661  0.5631  0.0860
  224en-    CQM 8052   3.261   1.964   0.835 -0.2617 -0.2583  0.0590
  224en-    CQM 8053   3.151   2.049   0.823  0.7881  0.0242 -0.4319
  224en-    CQM 8054   3.065   2.057   0.937  0.6783 -0.4284 -0.2170
  224en-    CQM 8055   3.092   1.992   1.057  0.4101  0.0261 -1.1752
  224en-    CQM 8056   2.998   1.992   1.160  0.9198  1.0061 -0.8214
  224en-    HQM 8057   2.907   2.051   1.153 -0.4681 -0.8818  0.7137
  224en-    HQM 8058   2.973   2.112   0.919 -0.2538 -0.9837  2.6064
  224en-    HQM 8059   3.135   2.114   0.737  0.1688 -1.1539 -1.2159
  224en-    HQM 8060   3.332   1.954   0.753 -1.1156 -0.1591 -0.6932
  224en-    HQM 8061   3.384   1.846   0.966  0.1286  0.9407 -1.0307
  224en-    HQM 8062   3.343   1.816   1.222  1.5580  1.0851 -2.1350
  224en-    CQM 8063   3.166   1.792   1.428 -0.1639  0.3141  0.4526
  224en-    HQM 8064   3.257   1.736   1.447  1.0379  2.1834  0.3085
  225en-    CQM 8065   2.679   2.508   2.892  0.5419  0.8263 -0.4393
  225en-    CQM 8066   2.576   2.456   2.977 -0.3002 -0.3220  0.2940
  225en-    CQM 8067   2.600   2.450   3.116 -0.4166 -0.4485 -0.1201
  225en-    CQM 8068   2.502   2.393   3.199 -0.1899  0.1264 -0.2499
  225en-    CQM 8069   2.516   2.393   3.337 -0.1935 -0.4733  0.0835
  225en-    CQM 8070   2.630   2.444   3.391  0.4418 -0.2661  0.1690
  225en-    CQM 8071   2.735   2.503   3.310 -0.1959  0.7084  0.1609
  225en-    CQM 8072   2.722   2.493   3.174 -0.8654  0.5388  0.0602
  225en-    CQM 8073   2.822   2.537   3.086  0.6972 -0.2972 -0.1098
  225en-    CQM 8074   2.801   2.549   2.949 -0.2339  0.2824 -0.1570
  225en-    CQM 8075   2.656   2.504   2.754  0.0850  0.1108  0.8725
  225en-    HQM 8076   2.480   2.415   2.947 -0.1533  0.6774 -1.6360
  225en-    HQM 8077   2.415   2.350   3.150 -0.1834  0.8434 -0.9018
  225en-    HQM 8078   2.438   2.347   3.396 -2.5894 -0.5582 -3.0393
  225en-    HQM 8079   2.638   2.429   3.499 -1.7873  1.8917  0.6801
  225en-    HQM 8080   2.826   2.540   3.358  0.2301 -0.0015 -0.0971
  225en-    HQM 8081   2.922   2.561   3.121  0.9823 -4.0008  1.7884
  225en-    HQM 8082   2.562   2.463   2.720  0.4174  0.6285 -0.7129
  225en-    CQM 8083   2.751   2.556   2.665  0.2762  0.1618 -0.6280
  225en-    CQM 8084   2.875   2.604   2.724  0.3554 -0.5695  0.8603
  225en-    CQM 8085   2.971   2.658   2.636 -0.0729  0.2135  0.8251
  225en-    CQM 8086   2.948   2.660   2.501 -0.3443  0.4813 -0.5471
  225en-    CQM 8087   3.054   2.710   2.418  0.4915  0.5305  0.2260
  225en-    CQM 8088   3.045   2.701   2.279  1.1146 -0.1618 -0.2641
  225en-    CQM 8089   2.923   2.659   2.223 -0.6260  0.5099 -0.0869
  225en-    CQM 8090   2.821   2.605   2.302  0.3096  0.2069 -0.1909
  225en-    CQM 8091   2.827   2.607   2.441  0.1511  0.5706 -0.4448
  225en-    CQM 8092   2.727   2.557   2.528 -1.4052 -0.6115  0.1929
  225en-    HQM 8093   2.629   2.521   2.499 -1.2302 -0.4531 -0.6103
  225en-    HQM 8094   2.736   2.554   2.256  0.4152 -0.6236  0.5252
  225en-    HQM 8095   2.910   2.663   2.115  1.5155  3.4370 -0.3031
  225en-    HQM 8096   3.125   2.735   2.213  1.4726 -0.4895 -0.0047
  225en-    HQM 8097   3.152   2.731   2.459  1.7154 -0.5250 -2.0786
  225en-    HQM 8098   3.065   2.694   2.676 -0.0090  1.3836 -0.3365
  225en-    CQM 8099   2.901   2.599   2.865  0.0544  0.6136  0.0559
  225en-    HQM 8100   2.991   2.644   2.905  0.4093  2.8058 -3.0217
  226en-    CQM 8101   2.964   2.194   2.892 -0.1368 -0.2322 -0.2028
  226en-    CQM 8102   2.862   2.186   2.986 -0.2949 -0.6907 -0.2026
  226en-    CQM 8103   2.876   2.129   3.116 -0.5599  0.2085  0.3703
  226en-    CQM 8104   2.774   2.128   3.215 -0.1708 -0.5076 -0.0785
  226en-    CQM 8105   2.802   2.060   3.336 -0.0514  0.4773 -0.5880
  226en-    CQM 8106   2.924   1.996   3.361  0.2324 -0.8412 -0.0507
  226en-    CQM 8107   3.022   2.005   3.265 -0.3839  0.5279 -0.6071
  226en-    CQM 8108   2.998   2.069   3.147  0.4807  0.4100  0.7902
  226en-    CQM 8109   3.102   2.070   3.052  1.0716 -0.3544 -0.1938
  226en-    CQM 8110   3.084   2.130   2.924  0.4517 -0.2814  0.2155
  226en-    CQM 8111   2.941   2.254   2.765 -0.0825 -0.2173  0.2117
  226en-    HQM 8112   2.760   2.215   2.962 -0.5471 -2.5924 -1.5277
  226en-    HQM 8113   2.681   2.182   3.201  0.1622 -0.4458 -2.2609
  226en-    HQM 8114   2.725   2.063   3.412  1.1481 -2.6082  0.8206
  226en-    HQM 8115   2.941   1.928   3.443  0.7334 -0.6390  0.0126
  226en-    HQM 8116   3.116   1.952   3.278 -0.9649 -0.4860 -0.4627
  226en-    HQM 8117   3.193   2.016   3.077 -0.0683 -1.4767  1.6911
  226en-    HQM 8118   2.842   2.294   2.745 -0.7867 -0.9607  2.0720
  226en-    CQM 8119   3.044   2.256   2.673 -0.5289 -0.3546  0.3230
  226en-    CQM 8120   3.166   2.192   2.705 -0.0370 -0.3507  0.2795
  226en-    CQM 8121   3.266   2.189   2.605 -0.0355 -0.2994  0.3316
  226en-    CQM 8122   3.246   2.246   2.480  0.5399  0.5413 -0.7986
  226en-    CQM 8123   3.336   2.221   2.382  0.4945 -0.0030  1.0827
  226en-    CQM 8124   3.313   2.272   2.253  0.3130  0.0109 -0.1370
  226en-    CQM 8125   3.192   2.343   2.224  0.1401 -0.3797 -0.0351
  226en-    CQM 8126   3.093   2.356   2.322  0.4974 -0.8219  0.0583
  226en-    CQM 8127   3.124   2.306   2.444 -0.8038 -0.4955 -0.0155
  226en-    CQM 8128   3.028   2.318   2.550  0.3061 -0.3701  0.7393
  226en-    HQM 8129   2.938   2.372   2.522  1.3298  1.9274  1.7610
  226en-    HQM 8130   3.000   2.409   2.305  1.1069  0.0249 -0.6588
  226en-    HQM 8131   3.173   2.384   2.125 -1.2898 -0.9140  0.0071
  226en-    HQM 8132   3.388   2.254   2.177 -1.6529 -2.1242 -1.6481
  226en-    HQM 8133   3.432   2.174   2.401  0.2013 -0.4154  1.5515
  226en-    HQM 8134   3.353   2.125   2.619  0.3951 -0.1368 -1.4994
  226en-    CQM 8135   3.185   2.127   2.831 -0.2598  1.3079  1.0597
  226en-    HQM 8136   3.274   2.066   2.847 -0.6151  0.4588 -0.1314
  227en-    CQM 8137   2.742   2.841   4.299  0.1817  0.0560  0.3313
  227en-    CQM 8138   2.640   2.784   4.366  0.2914  0.3934 -0.2189
  227en-    CQM 8139   2.647   2.765   4.508 -0.3340  0.0579  0.1383
  227en-    CQM 8140   2.541   2.702   4.576 -0.8340  0.2294 -0.4099
  227en-    CQM 8141   2.556   2.678   4.712  0.0618  0.2764  0.0441
  227en-    CQM 8142   2.667   2.727   4.781 -0.1442 -0.9413  0.1036
  227en-    CQM 8143   2.771   2.796   4.714 -0.2600  0.2778  0.1149
  227en-    CQM 8144   2.758   2.809   4.571 -0.3486 -0.1523 -0.3010
  227en-    CQM 8145   2.868   2.873   4.502  0.1094 -0.8292  0.5712
  227en-    CQM 8146   2.853   2.894   4.365  0.0169 -0.8624 -0.7784
  227en-    CQM 8147   2.716   2.852   4.159  0.6504  0.3605 -0.3262
  227en-    HQM 8148   2.553   2.747   4.312 -1.2078  3.0543  0.2638
  227en-    HQM 8149   2.455   2.667   4.521 -0.4583 -0.6289 -0.4746
  227en-    HQM 8150   2.482   2.616   4.763 -0.0703  1.5666  1.4568
  227en-    HQM 8151   2.681   2.696   4.884 -1.2553 -0.1180  0.5140
  227en-    HQM 8152   2.856   2.842   4.763 -0.4976  0.8867 -0.0320
  227en-    HQM 8153   2.952   2.899   4.566 -0.5750  0.1185  1.0951
  227en-    HQM 8154   2.624   2.814   4.116  1.8477 -0.8433 -1.8611
  227en-    CQM 8155   2.818   2.901   4.083  0.0545  0.0512  0.6985
  227en-    CQM 8156   2.932   2.942   4.138 -0.7411  0.0196  0.3914
  227en-    CQM 8157   3.030   3.007   4.056 -0.5234  0.1926  0.5117
  227en-    CQM 8158   3.015   3.022   3.917 -0.3634  0.7053  0.6183
  227en-    CQM 8159   3.113   3.077   3.834 -0.5544 -0.6259  0.2581
  227en-    CQM 8160   3.093   3.094   3.697  0.3106 -0.0901 -0.6111
  227en-    CQM 8161   2.971   3.051   3.642 -0.2932 -0.7971 -0.2067
  227en-    CQM 8162   2.878   2.983   3.722  0.3276 -0.3525  0.1263
  227en-    CQM 8163   2.903   2.968   3.858 -0.2553 -0.6666  0.6658
  227en-    CQM 8164   2.806   2.907   3.942  0.3032 -0.2409 -0.8092
  227en-    HQM 8165   2.729   2.847   3.895 -1.5506 -0.1104  1.9632
  227en-    HQM 8166   2.785   2.944   3.684  0.4788 -0.0612 -0.5632
  227en-    HQM 8167   2.944   3.057   3.537 -1.2329  0.0052  0.0788
  227en-    HQM 8168   3.164   3.142   3.631  1.3588  1.7379  1.7803
  227en-    HQM 8169   3.200   3.120   3.881 -1.5281 -0.5379  2.0282
  227en-    HQM 8170   3.121   3.051   4.096  0.0345 -0.4876  0.0154
  227en-    CQM 8171   2.956   2.940   4.278  0.9782  0.7562  0.4862
  227en-    HQM 8172   3.055   2.963   4.318  0.6569  2.3916  0.3641
  228en-    CQM 8173   3.042   2.509   4.321  0.1400 -0.7640 -0.0294
  228en-    CQM 8174   2.938   2.521   4.419 -0.3185  0.3819 -0.7387
  228en-    CQM 8175   2.955   2.468   4.547 -0.8946  0.4920  0.6079
  228en-    CQM 8176   2.861   2.486   4.653 -0.1789 -0.4774 -0.6088
  228en-    CQM 8177   2.876   2.419   4.775  0.2463  0.4495 -0.0402
  228en-    CQM 8178   2.988   2.328   4.790  0.5071 -0.0671  0.2336
  228en-    CQM 8179   3.087   2.321   4.687  0.0968 -0.1202 -0.4190
  228en-    CQM 8180   3.073   2.392   4.568 -0.1097 -0.2920  0.4567
  228en-    CQM 8181   3.175   2.379   4.472  0.3028 -0.3725 -0.8052
  228en-    CQM 8182   3.164   2.445   4.345 -0.3956 -0.1786 -0.4995
  228en-    CQM 8183   3.008   2.571   4.195 -0.3625 -0.0749 -0.0856
  228en-    HQM 8184   2.850   2.581   4.396 -0.8038 -0.5725 -1.4052
  228en-    HQM 8185   2.765   2.535   4.641 -0.1329 -0.2583 -0.1203
  228en-    HQM 8186   2.798   2.428   4.849 -0.6598  1.1453 -1.0566
  228en-    HQM 8187   3.004   2.279   4.886 -0.2969 -0.3007  0.2526
  228en-    HQM 8188   3.178   2.263   4.700  0.6237  0.2499 -2.2375
  228en-    HQM 8189   3.268   2.334   4.503  0.4027 -0.8210 -1.7377
  228en-    HQM 8190   2.913   2.621   4.175  0.3171  1.0354 -0.5887
  228en-    CQM 8191   3.106   2.566   4.097  0.4330 -0.4172  0.8515
  228en-    CQM 8192   3.222   2.498   4.119  0.0799 -0.4226 -0.0178
  228en-    CQM 8193   3.325   2.498   4.023  0.8769 -0.0913  0.3217
  228en-    CQM 8194   3.304   2.558   3.896 -0.6013  0.0858  0.5231
  228en-    CQM 8195   3.401   2.555   3.800 -0.2122 -0.4418 -0.4455
  228en-    CQM 8196   3.384   2.616   3.676 -1.1631  0.5523  0.1444
  228en-    CQM 8197   3.266   2.686   3.651 -0.2071 -0.0278  0.5600
  228en-    CQM 8198   3.163   2.696   3.742 -0.7559 -0.7049  0.1210
  228en-    CQM 8199   3.186   2.634   3.870  0.4927 -0.0534  0.1010
  228en-    CQM 8200   3.086   2.633   3.970 -0.1900  0.3131 -0.0401
  228en-    HQM 8201   2.992   2.681   3.943  0.3028  0.3772 -1.7195
  228en-    HQM 8202   3.070   2.744   3.713 -0.6397 -1.6666 -1.9726
  228en-    HQM 8203   3.246   2.738   3.557 -1.8971 -1.2251  0.2365
  228en-    HQM 8204   3.465   2.623   3.604  1.2978  2.9862  3.0329
  228en-    HQM 8205   3.493   2.501   3.822 -0.0991 -0.1111 -0.1050
  228en-    HQM 8206   3.420   2.453   4.049  0.5605  0.6086  2.8652
  228en-    CQM 8207   3.254   2.432   4.237  0.4044  0.0908  0.0989
  228en-    HQM 8208   3.350   2.382   4.248 -1.5289 -3.5582  0.9688
  229en-    CQM 8209   2.790   3.200   5.717 -0.0559  0.4698  0.4989
  229en-    CQM 8210   2.690   3.148   5.799 -0.6631  0.1585  0.2988
  229en-    CQM 8211   2.703   3.140   5.940 -0.4110  0.1700  0.6601
  229en-    CQM 8212   2.599   3.080   6.014 -0.7112  0.2158 -0.3309
  229en-    CQM 8213   2.620   3.054   6.153  0.3055 -0.2680  0.0048
  229en-    CQM 8214   2.731   3.111   6.213  0.2772 -0.1516  0.3250
  229en-    CQM 8215   2.829   3.178   6.136  0.0429  0.0067 -0.2819
  229en-    CQM 8216   2.817   3.188   6.000  0.1005 -0.0483 -0.1254
  229en-    CQM 8217   2.920   3.246   5.921 -0.5403 -0.2152  0.6148
  229en-    CQM 8218   2.906   3.248   5.779 -0.6375 -0.3814  0.2931
  229en-    CQM 8219   2.767   3.213   5.580 -0.5323 -0.5132 -0.6870
  229en-    HQM 8220   2.595   3.118   5.756  0.1089  1.5246 -2.4956
  229en-    HQM 8221   2.510   3.041   5.964 -1.6522  0.2700  1.2747
  229en-    HQM 8222   2.539   3.006   6.209  1.6313 -0.8801  1.4235
  229en-    HQM 8223   2.752   3.088   6.317  1.2936 -2.3071 -0.3380
  229en-    HQM 8224   2.916   3.216   6.189 -0.5757  0.6606  0.2804
  229en-    HQM 8225   3.003   3.292   5.973 -0.1527  0.5225 -0.6484
  229en-    HQM 8226   2.679   3.175   5.529 -1.5251  0.1217  0.5166
  229en-    CQM 8227   2.876   3.257   5.494 -0.6484 -0.0718 -0.0337
  229en-    CQM 8228   2.998   3.298   5.557 -0.5384  0.7936  0.1787
  229en-    CQM 8229   3.100   3.360   5.475 -0.1571 -0.1318  0.3546
  229en-    CQM 8230   3.079   3.370   5.333  0.8423  0.1273 -0.0273
  229en-    CQM 8231   3.185   3.418   5.255 -0.6883  0.1613 -0.1200
  229en-    CQM 8232   3.168   3.431   5.119 -0.1569  0.1900  0.4113
  229en-    CQM 8233   3.048   3.391   5.061  0.3325  0.3377  0.1489
  229en-    CQM 8234   2.951   3.326   5.139  0.4786  0.1164 -0.5249
  229en-    CQM 8235   2.963   3.318   5.275  1.0833  0.7396  0.6649
  229en-    CQM 8236   2.864   3.262   5.354  0.4585 -0.9115 -0.5335
  229en-    HQM 8237   2.776   3.225   5.303  0.2092  0.0770 -0.8419
  229en-    HQM 8238   2.854   3.298   5.099  1.0928  0.1004 -2.0604
  229en-    HQM 8239   3.039   3.397   4.953  2.9842  1.3400 -0.0399
  229en-    HQM 8240   3.246   3.481   5.062 -0.6060  0.3371 -0.0755
  229en-    HQM 8241   3.278   3.449   5.302 -0.4606 -2.8465  1.5759
  229en-    HQM 8242   3.184   3.408   5.523  0.1794 -0.3189 -0.0461
  229en-    CQM 8243   3.013   3.290   5.695 -0.4530  0.1486  0.1939
  229en-    HQM 8244   3.103   3.327   5.743 -0.5764 -0.2137  0.7131
  230en-    CQM 8245   3.080   2.892   5.702 -0.2006  0.0520 -0.3298
  230en-    CQM 8246   2.990   2.898   5.808  0.0960 -0.0650 -0.1541
  230en-    CQM 8247   3.015   2.832   5.929 -0.6564 -0.2116  0.8133
  230en-    CQM 8248   2.914   2.813   6.028  0.6684 -0.1332  0.0555
  230en-    CQM 8249   2.931   2.731   6.141 -0.2180 -0.2159  0.0487
  230en-    CQM 8250   3.061   2.671   6.156  0.5229  0.0828  0.1794
  230en-    CQM 8251   3.159   2.688   6.061  0.2231  0.1273 -0.0110
  230en-    CQM 8252   3.136   2.763   5.945 -0.6911 -0.4177 -0.0363
  230en-    CQM 8253   3.223   2.755   5.843 -0.4615  0.1131 -0.0215
  230en-    CQM 8254   3.203   2.817   5.720  0.5899  0.2262 -0.2334
  230en-    CQM 8255   3.059   2.949   5.579  0.5409 -0.3531 -0.2036
  230en-    HQM 8256   2.894   2.946   5.790 -1.6599 -2.4272  2.4220
  230en-    HQM 8257   2.823   2.872   6.013  0.0484 -1.0418  0.2215
  230en-    HQM 8258   2.853   2.716   6.215 -0.0882 -1.8745 -0.1163
  230en-    HQM 8259   3.083   2.628   6.253 -0.4952  1.5896  1.1069
  230en-    HQM 8260   3.261   2.652   6.076 -0.3575 -1.5508 -0.0747
  230en-    HQM 8261   3.302   2.679   5.848 -0.2108  0.3477 -0.3616
  230en-    HQM 8262   2.970   3.008   5.558 -0.8546 -1.5511  2.1194
  230en-    CQM 8263   3.156   2.943   5.474  0.3630 -0.4004  0.7598
  230en-    CQM 8264   3.278   2.870   5.499  0.2204  0.6189  0.6872
  230en-    CQM 8265   3.379   2.863   5.400 -0.3334  0.0502 -0.1265
  230en-    CQM 8266   3.357   2.922   5.276 -0.7388  0.0208 -0.0436
  230en-    CQM 8267   3.458   2.908   5.177 -0.2900  0.3000  0.3834
  230en-    CQM 8268   3.439   2.971   5.050 -0.0581 -0.0756  0.3307
  230en-    CQM 8269   3.316   3.034   5.019 -0.1063 -0.5433 -0.0629
  230en-    CQM 8270   3.221   3.060   5.126  0.2451 -0.1059  0.9247
  230en-    CQM 8271   3.242   3.000   5.254 -0.1867 -0.7260 -0.1916
  230en-    CQM 8272   3.141   3.009   5.353  0.3011 -0.5633 -0.5451
  230en-    HQM 8273   3.048   3.061   5.334  0.8181  0.8621  0.6658
  230en-    HQM 8274   3.129   3.114   5.107  0.0502  0.1315  2.4753
  230en-    HQM 8275   3.294   3.081   4.924 -2.3983  0.0957  0.7528
  230en-    HQM 8276   3.510   2.966   4.968 -3.2092  2.3314 -2.7078
  230en-    HQM 8277   3.543   2.844   5.196  0.7372  1.4615 -0.2757
  230en-    HQM 8278   3.466   2.800   5.417  0.5221  0.6623 -2.0259
  230en-    CQM 8279   3.301   2.808   5.621 -0.1894  0.2618  0.1603
  230en-    HQM 8280   3.392   2.752   5.638 -0.5250  0.1237  1.5220
  231en-    CQM 8281   2.680   2.630   0.083  0.1952  0.3357 -0.2464
  231en-    CQM 8282   2.574   2.577   0.164  0.2092  0.5002 -0.4718
  231en-    CQM 8283   2.599   2.568   0.303  0.6201  0.4876  0.4478
  231en-    CQM 8284   2.494   2.515   0.381 -0.2773 -0.3816 -0.4990
  231en-    CQM 8285   2.522   2.492   0.520 -0.6867  0.4649 -0.0509
  231en-    CQM 8286   2.648   2.523   0.575  0.6665 -0.4913  0.3240
  231en-    CQM 8287   2.750   2.571   0.496 -0.1459 -0.9143 -0.8136
  231en-    CQM 8288   2.724   2.601   0.360 -0.6487  0.0927 -0.0951
  231en-    CQM 8289   2.824   2.658   0.280 -0.1685 -0.0902  0.1610
  231en-    CQM 8290   2.799   2.676   0.141 -0.6840 -0.1346  0.1844
  231en-    CQM 8291   2.660   2.632  -0.055  0.0500  0.1170  0.8705
  231en-    HQM 8292   2.479   2.541   0.124 -0.1498  0.9811 -0.0645
  231en-    HQM 8293   2.398   2.487   0.338  0.4356  0.6241 -2.8023
  231en-    HQM 8294   2.444   2.447   0.582 -0.3473 -1.3497 -0.8921
  231en-    HQM 8295   2.671   2.507   0.680 -2.2440 -2.8599  0.6607
  231en-    HQM 8296   2.845   2.597   0.541 -0.9068 -0.4451  0.5708
  231en-    HQM 8297   2.918   2.689   0.326 -1.6493  0.7322  2.7597
  231en-    HQM 8298   2.565   2.613  -0.105  0.3351  2.4590 -0.6433
  231en-    CQM 8299   2.760   2.682  -0.141  0.8206  0.4965 -0.1766
  231en-    CQM 8300   2.882   2.730  -0.084  0.6240 -0.0129 -0.7140
  231en-    CQM 8301   2.986   2.772  -0.170 -0.2168  0.1645 -0.1714
  231en-    CQM 8302   2.952   2.789  -0.308  0.3607  0.3146 -0.5367
  231en-    CQM 8303   3.051   2.853  -0.387 -0.6176 -0.1404 -0.3173
  231en-    CQM 8304   3.027   2.858  -0.527 -0.1969 -1.2476  0.9858
  231en-    CQM 8305   2.910   2.810  -0.583 -0.3523  0.2886  0.3068
  231en-    CQM 8306   2.813   2.749  -0.502  0.9198  0.2724 -0.1356
  231en-    CQM 8307   2.830   2.741  -0.364  1.1045  0.1328 -0.9324
  231en-    CQM 8308   2.732   2.687  -0.278 -0.8569  0.3814  0.4601
  231en-    HQM 8309   2.638   2.661  -0.325 -0.9814  0.6198  0.5773
  231en-    HQM 8310   2.716   2.724  -0.544 -0.5995  1.1884  2.7281
  231en-    HQM 8311   2.890   2.807  -0.690  0.8817 -1.7440  0.1012
  231en-    HQM 8312   3.109   2.898  -0.586 -0.7176  0.4668  1.3852
  231en-    HQM 8313   3.148   2.877  -0.344 -0.8101  1.7481 -0.9067
  231en-    HQM 8314   3.079   2.812  -0.129  0.5096 -0.9962 -0.6754
  231en-    CQM 8315   2.907   2.719   0.057 -0.3577  0.1192  0.1120
  231en-    HQM 8316   3.000   2.751   0.102 -0.1584  0.1796 -0.3416
  232en-    CQM 8317   2.958   2.316   0.074 -0.2969 -0.7417 -0.0213
  232en-    CQM 8318   2.849   2.313   0.164 -0.5091 -0.7500  0.3040
  232en-    CQM 8319   2.867   2.250   0.289  0.1754  0.2094 -0.7960
  232en-    CQM 8320   2.759   2.247   0.379  0.4854  0.1925 -0.2344
  232en-    CQM 8321   2.769   2.194   0.507 -0.2922 -0.2738  0.2980
  232en-    CQM 8322   2.896   2.142   0.549 -0.1429 -1.0244 -0.0297
  232en-    CQM 8323   3.000   2.135   0.453  0.3694  0.5227  0.0317
  232en-    CQM 8324   2.991   2.183   0.321  0.3986  0.0700 -0.1762
  232en-    CQM 8325   3.095   2.183   0.226  0.0573  0.2226  0.0614
  232en-    CQM 8326   3.079   2.246   0.099 -0.4853  0.1352 -0.2111
  232en-    CQM 8327   2.947   2.380  -0.047  0.1373  0.6258 -0.1948
  232en-    HQM 8328   2.756   2.365   0.143  1.1001  1.0839 -2.6874
  232en-    HQM 8329   2.665   2.294   0.350  0.3176  0.8115  1.2663
  232en-    HQM 8330   2.686   2.203   0.576 -0.8212  0.8558 -0.4874
  232en-    HQM 8331   2.914   2.106   0.650  0.5864 -0.3982  0.0702
  232en-    HQM 8332   3.093   2.095   0.492  0.3189  1.6822  1.3846
  232en-    HQM 8333   3.184   2.128   0.256  0.1564  0.8712  1.0164
  232en-    HQM 8334   2.854   2.433  -0.065 -0.8981 -0.7957  0.8491
  232en-    CQM 8335   3.044   2.369  -0.144  0.1521  0.9820  0.9300
  232en-    CQM 8336   3.164   2.302  -0.125  0.3366 -0.1054 -0.1189
  232en-    CQM 8337   3.270   2.302  -0.217 -0.6420  0.0147 -0.8086
  232en-    CQM 8338   3.243   2.366  -0.341 -0.7687 -0.7047  0.5172
  232en-    CQM 8339   3.344   2.373  -0.441  0.1386 -0.1218 -0.3953
  232en-    CQM 8340   3.328   2.443  -0.555  0.9117 -0.7937  0.5972
  232en-    CQM 8341   3.211   2.505  -0.581  0.1023 -0.6757 -0.2350
  232en-    CQM 8342   3.108   2.504  -0.487 -0.2121 -0.4539  0.2996
  232en-    CQM 8343   3.123   2.429  -0.366 -0.2485  0.9636 -0.3899
  232en-    CQM 8344   3.023   2.431  -0.269  0.3050 -0.0929  1.2082
  232en-    HQM 8345   2.922   2.462  -0.295  0.4864 -1.0931 -0.7547
  232en-    HQM 8346   3.016   2.559  -0.505  1.8547  3.4782  1.2069
  232en-    HQM 8347   3.198   2.561  -0.673 -0.4656  0.2026  0.3729
  232en-    HQM 8348   3.408   2.454  -0.628  0.0024 -0.8501 -0.4155
  232en-    HQM 8349   3.439   2.323  -0.425  0.8722  1.1223 -0.8111
  232en-    HQM 8350   3.367   2.256  -0.203 -0.5796  0.1999 -0.6325
  232en-    CQM 8351   3.183   2.239   0.002 -1.1891  0.3637 -0.1889
  232en-    HQM 8352   3.279   2.193   0.025 -0.0131  3.6485  1.7782
  233en-    CQM 8353   2.722   2.955   1.499  0.6029 -0.1035  0.4007
  233en-    CQM 8354   2.622   2.900   1.580  0.1067 -0.8256  0.0793
  233en-    CQM 8355   2.646   2.891   1.720 -0.4357  0.1698  0.0786
  233en-    CQM 8356   2.545   2.828   1.793  1.0382  0.0277  1.0498
  233en-    CQM 8357   2.563   2.823   1.934 -0.0672  0.3598  0.0772
  233en-    CQM 8358   2.682   2.865   1.993  0.4838 -0.4714  0.6096
  233en-    CQM 8359   2.784   2.925   1.912  0.0739  0.6313 -0.4382
  233en-    CQM 8360   2.767   2.931   1.776  0.1506 -0.2194 -0.1319
  233en-    CQM 8361   2.865   2.986   1.692  0.2435  0.7779 -0.0661
  233en-    CQM 8362   2.841   3.002   1.553 -0.0811  0.4054 -0.0426
  233en-    CQM 8363   2.708   2.959   1.358 -0.3229  0.6255 -0.3653
  233en-    HQM 8364   2.538   2.848   1.534 -2.2674  1.0379  2.1887
  233en-    HQM 8365   2.459   2.784   1.745  1.5099  0.3432 -0.0831
  233en-    HQM 8366   2.481   2.783   1.993 -1.2853 -0.5320 -2.1453
  233en-    HQM 8367   2.697   2.868   2.101  1.3338  3.0729  0.4544
  233en-    HQM 8368   2.875   2.959   1.961 -0.7691  2.0624  0.1643
  233en-    HQM 8369   2.950   3.038   1.737 -0.1055  1.2308  0.0729
  233en-    HQM 8370   2.614   2.927   1.313  0.8497  1.0813 -3.2354
  233en-    CQM 8371   2.807   3.018   1.277 -0.6338 -0.2907 -0.3959
  233en-    CQM 8372   2.928   3.062   1.330 -0.1885  0.2357 -0.0699
  233en-    CQM 8373   3.028   3.119   1.252 -0.0039 -0.9689  0.5545
  233en-    CQM 8374   3.015   3.116   1.109 -0.1560 -0.4712 -0.4690
  233en-    CQM 8375   3.116   3.168   1.032 -0.0979  0.1072  0.2365
  233en-    CQM 8376   3.104   3.171   0.893 -0.1558  1.6144  0.4711
  233en-    CQM 8377   2.987   3.118   0.829 -0.3596 -0.3704  0.4036
  233en-    CQM 8378   2.882   3.061   0.913 -0.7381 -0.1716 -0.2256
  233en-    CQM 8379   2.896   3.061   1.052  0.1973 -0.3023  0.5365
  233en-    CQM 8380   2.791   3.019   1.138 -0.1879  0.3653  0.0389
  233en-    HQM 8381   2.698   2.983   1.095  0.3663 -0.3449 -0.5685
  233en-    HQM 8382   2.787   3.032   0.869 -1.1759  1.4748 -0.3836
  233en-    HQM 8383   2.978   3.123   0.721  1.0895  0.3566  0.2973
  233en-    HQM 8384   3.185   3.214   0.834  1.7829 -0.1470  1.7863
  233en-    HQM 8385   3.206   3.207   1.078  0.5131  0.1445 -0.9632
  233en-    HQM 8386   3.122   3.154   1.295  0.9679 -2.0136 -0.6677
  233en-    CQM 8387   2.942   3.061   1.470 -0.4293  0.0066  0.4018
  233en-    HQM 8388   3.037   3.102   1.505 -0.1705  0.2644 -0.5927
  234en-    CQM 8389   3.008   2.622   1.506 -0.0458  0.6107 -0.2429
  234en-    CQM 8390   2.904   2.622   1.596  0.0144 -0.0668  0.3078
  234en-    CQM 8391   2.921   2.557   1.715  0.3887 -0.0738 -0.6746
  234en-    CQM 8392   2.818   2.563   1.813 -0.3086  0.1810  0.1126
  234en-    CQM 8393   2.837   2.505   1.941  0.4063 -0.3235  0.2877
  234en-    CQM 8394   2.953   2.436   1.971  0.4604 -0.1912 -0.3525
  234en-    CQM 8395   3.055   2.430   1.879  0.6564 -0.0546  1.1711
  234en-    CQM 8396   3.045   2.494   1.750  0.0351  0.0025  0.1159
  234en-    CQM 8397   3.153   2.500   1.662  0.0207 -0.0207  0.0335
  234en-    CQM 8398   3.129   2.556   1.535  0.5710  0.9435  0.8474
  234en-    CQM 8399   2.996   2.684   1.382  0.0360 -0.2102  0.5327
  234en-    HQM 8400   2.808   2.671   1.578 -0.8444 -1.2188  1.6486
  234en-    HQM 8401   2.728   2.621   1.794 -1.3807 -0.5419  2.8068
  234en-    HQM 8402   2.760   2.511   2.017 -1.3126  0.9510 -1.4909
  234en-    HQM 8403   2.960   2.388   2.068 -1.0187 -1.7171 -0.9596
  234en-    HQM 8404   3.147   2.374   1.893 -0.4554 -2.5433 -0.9196
  234en-    HQM 8405   3.245   2.448   1.685 -1.8044 -2.1449  3.0023
  234en-    HQM 8406   2.902   2.733   1.360  0.6945  1.0971  0.6059
  234en-    CQM 8407   3.105   2.689   1.296 -0.2800  0.3841  0.1448
  234en-    CQM 8408   3.228   2.631   1.327 -0.1947  0.6117 -0.7524
  234en-    CQM 8409   3.327   2.628   1.229  0.6108  0.5308  0.0268
  234en-    CQM 8410   3.309   2.692   1.105 -0.1198 -0.1422  0.6345
  234en-    CQM 8411   3.412   2.682   1.007 -0.3968  0.3280 -0.0784
  234en-    CQM 8412   3.393   2.735   0.881 -0.0921  0.5066  0.3308
  234en-    CQM 8413   3.261   2.778   0.849  0.1080 -0.4614  0.1477
  234en-    CQM 8414   3.159   2.793   0.947 -0.3331 -0.2435 -0.0049
  234en-    CQM 8415   3.187   2.745   1.074 -0.4247 -0.2252 -0.1796
  234en-    CQM 8416   3.080   2.752   1.171  0.3900 -0.6803  0.4948
  234en-    HQM 8417   2.976   2.771   1.146  1.2349  0.4221 -2.4657
  234en-    HQM 8418   3.066   2.839   0.917 -0.4845 -0.4855  0.0984
  234en-    HQM 8419   3.246   2.812   0.747  4.1824  0.4127 -0.2670
  234en-    HQM 8420   3.470   2.722   0.806  0.9603 -0.3832  1.5661
  234en-    HQM 8421   3.501   2.622   1.025  0.0104  1.2308  0.9960
  234en-    HQM 8422   3.417   2.569   1.244 -0.4375 -0.9664  0.5501
  234en-    CQM 8423   3.237   2.552   1.441 -0.0433 -0.2611 -0.3955
  234en-    HQM 8424   3.333   2.508   1.463  1.1284  2.3661 -0.0594
  235en-    CQM 8425   2.763   3.278   2.921 -0.4395  0.1765 -0.4407
  235en-    CQM 8426   2.657   3.245   3.002 -0.3140  0.7103 -0.6060
  235en-    CQM 8427   2.676   3.235   3.138  0.2477 -0.0478 -0.1259
  235en-    CQM 8428   2.583   3.161   3.218 -0.1512 -0.1730 -0.0729
  235en-    CQM 8429   2.608   3.153   3.353  0.2705 -0.2544 -0.1527
  235en-    CQM 8430   2.725   3.201   3.412  0.0711  0.4472  0.1107
  235en-    CQM 8431   2.817   3.264   3.331  0.2741 -0.5610 -0.4149
  235en-    CQM 8432   2.796   3.284   3.190  0.0720  0.5838  0.4426
  235en-    CQM 8433   2.901   3.334   3.109 -0.7830 -0.6909 -0.5179
  235en-    CQM 8434   2.882   3.327   2.973  0.3729 -0.2277 -0.0356
  235en-    CQM 8435   2.746   3.279   2.780 -0.2610 -0.2503 -0.3185
  235en-    HQM 8436   2.571   3.201   2.952 -1.0833  2.1002 -0.5500
  235en-    HQM 8437   2.494   3.110   3.182 -0.8620  0.4429  0.7751
  235en-    HQM 8438   2.534   3.091   3.405 -0.9413 -0.2280 -1.8002
  235en-    HQM 8439   2.755   3.179   3.514  2.2879 -0.1874 -0.6541
  235en-    HQM 8440   2.908   3.290   3.384 -0.5254  1.6823 -0.0748
  235en-    HQM 8441   2.991   3.365   3.161 -1.2963 -0.4506  0.2515
  235en-    HQM 8442   2.656   3.256   2.724 -2.1771  0.7858  2.2293
  235en-    CQM 8443   2.850   3.319   2.691 -0.0174  0.3735  0.0766
  235en-    CQM 8444   2.969   3.368   2.755 -0.4152 -0.7197  1.0668
  235en-    CQM 8445   3.071   3.421   2.671  0.8947 -0.1616 -0.0504
  235en-    CQM 8446   3.052   3.439   2.534  0.1388 -0.4341 -0.5623
  235en-    CQM 8447   3.159   3.484   2.465 -0.3335 -0.1563 -0.4350
  235en-    CQM 8448   3.151   3.502   2.325  0.2042 -0.2277  0.1710
  235en-    CQM 8449   3.032   3.467   2.266 -0.1243 -0.0456 -0.2043
  235en-    CQM 8450   2.922   3.415   2.334  0.3462 -0.3876  0.6957
  235en-    CQM 8451   2.927   3.406   2.475 -0.1901 -0.1033 -0.3922
  235en-    CQM 8452   2.830   3.351   2.559  0.3724  0.2272  0.5813
  235en-    HQM 8453   2.742   3.307   2.513  1.5066 -1.0062 -0.4425
  235en-    HQM 8454   2.830   3.384   2.286  0.6169  0.7499 -0.5862
  235en-    HQM 8455   3.026   3.480   2.159  1.4572  0.6260 -0.2220
  235en-    HQM 8456   3.230   3.543   2.263 -1.0805  1.0050 -0.6829
  235en-    HQM 8457   3.249   3.516   2.517 -0.4977  2.5032 -1.6687
  235en-    HQM 8458   3.166   3.452   2.713  1.0231  2.9654 -2.5098
  235en-    CQM 8459   2.988   3.368   2.890 -0.1849 -0.4068 -0.6691
  235en-    HQM 8460   3.079   3.398   2.941 -1.4840  3.5516 -0.4640
  236en-    CQM 8461   3.043   2.958   2.879  0.3306  0.6899  0.5479
  236en-    CQM 8462   2.952   2.977   2.985 -0.0006  0.5811  0.1979
  236en-    CQM 8463   2.968   2.906   3.106 -0.3501 -0.6772  0.1868
  236en-    CQM 8464   2.876   2.932   3.213  0.3186  0.2790 -0.1075
  236en-    CQM 8465   2.899   2.869   3.337  0.5902  0.9698 -0.6314
  236en-    CQM 8466   3.005   2.782   3.353 -0.4203  0.7836  0.0069
  236en-    CQM 8467   3.100   2.764   3.249 -0.0118  0.9994  0.4367
  236en-    CQM 8468   3.078   2.819   3.126 -0.9714 -0.3916 -0.1895
  236en-    CQM 8469   3.169   2.808   3.019 -0.2542 -0.4199 -0.3099
  236en-    CQM 8470   3.156   2.881   2.900 -0.5712 -0.0538 -0.3650
  236en-    CQM 8471   3.016   3.019   2.755 -0.1165  0.0830 -1.0146
  236en-    HQM 8472   2.865   3.042   2.971  0.6878  2.0428  2.3802
  236en-    HQM 8473   2.785   2.989   3.198 -0.2428 -0.8063 -0.9042
  236en-    HQM 8474   2.837   2.893   3.422  0.3309 -0.4967 -0.4013
  236en-    HQM 8475   3.027   2.728   3.445  1.8215 -1.8934 -2.0422
  236en-    HQM 8476   3.192   2.709   3.264 -0.1403  1.3040  2.4946
  236en-    HQM 8477   3.264   2.756   3.029  0.5247  1.1480  0.7068
  236en-    HQM 8478   2.930   3.084   2.738 -0.1618 -0.0748 -1.4127
  236en-    CQM 8479   3.121   3.014   2.662  0.2054  0.1936 -0.0012
  236en-    CQM 8480   3.244   2.949   2.690 -0.2924  0.6136  0.6080
  236en-    CQM 8481   3.342   2.950   2.590  0.6238 -0.1161 -0.1110
  236en-    CQM 8482   3.329   3.005   2.461 -0.4575 -0.0211 -0.1328
  236en-    CQM 8483   3.436   3.015   2.366  0.0835 -0.0029 -0.5416
  236en-    CQM 8484   3.419   3.082   2.243  0.1717  0.1692 -0.6454
  236en-    CQM 8485   3.291   3.137   2.214 -0.3063  0.1929  0.3573
  236en-    CQM 8486   3.179   3.122   2.308  0.0409 -0.2454  0.1958
  236en-    CQM 8487   3.199   3.065   2.436 -0.2772  0.1059 -0.0071
  236en-    CQM 8488   3.099   3.067   2.538  0.1826  0.5969  0.5803
  236en-    HQM 8489   3.001   3.110   2.515  0.1687  1.4714  2.1827
  236en-    HQM 8490   3.086   3.173   2.281  1.2439  1.5211 -0.7557
  236en-    HQM 8491   3.282   3.205   2.129 -1.0985 -0.2377  0.0893
  236en-    HQM 8492   3.501   3.104   2.175  0.6458 -1.8872 -0.7808
  236en-    HQM 8493   3.528   2.969   2.399  0.0198 -0.1889 -0.6263
  236en-    HQM 8494   3.438   2.908   2.617  1.1534  0.3622 -1.2140
  236en-    CQM 8495   3.260   2.870   2.805  0.2701 -0.8091 -0.4151
  236en-    HQM 8496   3.350   2.814   2.828  1.1145  1.1919  1.4058
  237en-    CQM 8497   2.799   3.631   4.313  0.7712 -0.1352  0.1108
  237en-    CQM 8498   2.703   3.565   4.397 -0.4977  0.0310 -0.1692
  237en-    CQM 8499   2.728   3.551   4.535 -0.6220  1.2524 -0.3972
  237en-    CQM 8500   2.635   3.495   4.621  0.2125 -0.5395  0.2815
  237en-    CQM 8501   2.656   3.500   4.760  0.7475 -0.0830  0.4794
  237en-    CQM 8502   2.775   3.550   4.817  0.3800 -0.1868  0.2583
  237en-    CQM 8503   2.869   3.605   4.731  0.2973 -0.0692  0.1784
  237en-    CQM 8504   2.846   3.601   4.589  0.2008 -0.3320  0.1534
  237en-    CQM 8505   2.941   3.670   4.506  0.2516 -0.2973  0.3796
  237en-    CQM 8506   2.914   3.686   4.369 -0.4471 -0.1070  0.1885
  237en-    CQM 8507   2.783   3.625   4.175  0.0669  0.0203 -0.2508
  237en-    HQM 8508   2.615   3.519   4.353  0.1859  1.2493 -2.9180
  237en-    HQM 8509   2.547   3.440   4.592  0.4598 -1.0087  0.4140
  237en-    HQM 8510   2.577   3.464   4.826  0.0840 -1.9013 -1.2372
  237en-    HQM 8511   2.795   3.534   4.923 -2.1016 -2.9334  0.3620
  237en-    HQM 8512   2.964   3.642   4.768  0.2494 -1.2918  1.5262
  237en-    HQM 8513   3.036   3.712   4.539  0.9479 -1.7664  0.3076
  237en-    HQM 8514   2.698   3.581   4.123  0.7738 -1.3702 -0.2487
  237en-    CQM 8515   2.882   3.680   4.093  0.3011  0.3549 -0.6874
  237en-    CQM 8516   3.000   3.730   4.148 -0.0432  0.6839  0.0644
  237en-    CQM 8517   3.107   3.780   4.070 -0.3208 -0.2108  0.1750
  237en-    CQM 8518   3.096   3.776   3.932  0.2460 -0.2377 -0.0429
  237en-    CQM 8519   3.191   3.833   3.846  0.7194  0.4795  1.2134
  237en-    CQM 8520   3.178   3.839   3.710  0.3446  0.5992 -0.1439
  237en-    CQM 8521   3.063   3.785   3.651  0.4731  0.2074  0.1247
  237en-    CQM 8522   2.964   3.726   3.733 -0.6159 -0.4743 -0.5914
  237en-    CQM 8523   2.977   3.720   3.874  0.0919 -0.0666 -0.3463
  237en-    CQM 8524   2.868   3.674   3.952  0.5994  0.3354 -0.7477
  237en-    HQM 8525   2.792   3.622   3.896  1.1561  1.8431 -2.9698
  237en-    HQM 8526   2.876   3.676   3.694 -0.2679 -2.0667  0.6254
  237en-    HQM 8527   3.037   3.800   3.547 -0.5278  2.2394  0.6495
  237en-    HQM 8528   3.251   3.888   3.646  0.1530 -1.1375 -1.7486
  237en-    HQM 8529   3.268   3.893   3.894  1.7136  1.7277 -1.8358
  237en-    HQM 8530   3.189   3.830   4.121 -2.3385  4.1432 -0.6398
  237en-    CQM 8531   3.018   3.735   4.287 -0.0752 -0.5262 -0.1635
  237en-    HQM 8532   3.102   3.777   4.340 -0.1508 -0.4654 -0.0908
  238en-    CQM 8533   3.069   3.280   4.325  0.1530  0.3316  0.2348
  238en-    CQM 8534   2.968   3.284   4.421 -0.1382 -0.2972 -0.0561
  238en-    CQM 8535   2.987   3.216   4.545 -0.1865 -0.1120  0.0220
  238en-    CQM 8536   2.892   3.227   4.650 -0.2772  0.3015 -0.3317
  238en-    CQM 8537   2.918   3.173   4.777 -0.8143  0.0345 -0.0706
  238en-    CQM 8538   3.032   3.091   4.795 -0.1836  0.5862  0.2438
  238en-    CQM 8539   3.125   3.082   4.690  0.4478 -0.0514 -0.6710
  238en-    CQM 8540   3.107   3.144   4.570 -0.0717 -0.7208  0.0816
  238en-    CQM 8541   3.207   3.145   4.474  0.2789  0.6950  1.0153
  238en-    CQM 8542   3.190   3.216   4.357  0.2315  0.3197  0.1329
  238en-    CQM 8543   3.053   3.343   4.201 -0.4989  0.0024  0.3867
  238en-    HQM 8544   2.875   3.339   4.415 -0.3903 -0.8509 -1.4746
  238en-    HQM 8545   2.802   3.285   4.633 -1.6718 -1.1972  1.6816
  238en-    HQM 8546   2.845   3.190   4.856  1.4588  0.3642  2.0503
  238en-    HQM 8547   3.052   3.036   4.887  0.2141  1.0054  0.4061
  238en-    HQM 8548   3.211   3.018   4.706 -0.3015 -1.1045 -0.7875
  238en-    HQM 8549   3.301   3.090   4.480 -0.4905 -0.6321  1.0429
  238en-    HQM 8550   2.954   3.381   4.176 -1.1314 -1.9774 -0.1910
  238en-    CQM 8551   3.156   3.343   4.102  0.0458  0.1214 -0.2688
  238en-    CQM 8552   3.275   3.276   4.136 -0.3216 -0.6438 -0.1262
  238en-    CQM 8553   3.377   3.263   4.044  0.5645  0.3733 -0.1506
  238en-    CQM 8554   3.369   3.330   3.924 -0.0198  0.1682  0.9619
  238en-    CQM 8555   3.475   3.317   3.830 -0.1703  0.0869  0.2285
  238en-    CQM 8556   3.459   3.366   3.700  0.1011 -0.2044 -0.4896
  238en-    CQM 8557   3.344   3.444   3.667  0.1786  0.1716 -0.3102
  238en-    CQM 8558   3.241   3.461   3.761  0.4252  0.0356 -0.3810
  238en-    CQM 8559   3.247   3.399   3.887 -0.3494  0.4350  0.3724
  238en-    CQM 8560   3.145   3.402   3.980 -0.0374  0.6411  0.2814
  238en-    HQM 8561   3.063   3.471   3.962 -0.5785 -0.1163 -0.1752
  238en-    HQM 8562   3.149   3.509   3.732  0.0778 -0.4168 -0.0310
  238en-    HQM 8563   3.330   3.485   3.567 -0.8896 -2.1199 -1.1247
  238en-    HQM 8564   3.538   3.349   3.628  2.0863 -1.7254  1.9492
  238en-    HQM 8565   3.559   3.255   3.859  0.6236  0.9124 -0.2933
  238en-    HQM 8566   3.471   3.214   4.063  1.9763  1.4421 -3.9058
  238en-    CQM 8567   3.293   3.210   4.261 -0.2125 -0.1670  0.1604
  238en-    HQM 8568   3.385   3.155   4.280 -0.4299 -0.8638 -0.7472
  239en-    CQM 8569   2.503   0.127   5.686  0.0242 -0.4350  0.5089
  239en-    CQM 8570   2.398   0.075   5.767  0.2498  0.2288  0.2107
  239en-    CQM 8571   2.415   0.055   5.906  0.7023 -0.0443 -0.3550
  239en-    CQM 8572   2.309   0.002   5.984 -0.4362  0.0404  0.2081
  239en-    CQM 8573   2.332  -0.005   6.121  0.0064  0.4614 -0.4094
  239en-    CQM 8574   2.458   0.030   6.185  0.3868 -0.1255 -0.1038
  239en-    CQM 8575   2.563   0.083   6.104 -0.2784  1.0665 -0.4178
  239en-    CQM 8576   2.539   0.098   5.967  0.2856  0.0278 -0.2526
  239en-    CQM 8577   2.640   0.154   5.887  0.3616 -0.1802  0.0264
  239en-    CQM 8578   2.624   0.169   5.748  0.1586  0.1402 -0.2665
  239en-    CQM 8579   2.484   0.137   5.548  0.0150 -0.2810  0.3006
  239en-    HQM 8580   2.305   0.032   5.731 -0.8806  0.5385  2.6532
  239en-    HQM 8581   2.213  -0.023   5.940  0.2417 -0.2192 -1.1447
  239en-    HQM 8582   2.248  -0.044   6.179  0.4245 -1.4079 -1.0332
  239en-    HQM 8583   2.473   0.012   6.291 -0.7166  0.9491  0.2541
  239en-    HQM 8584   2.656   0.114   6.150  0.1831 -0.0539 -0.5671
  239en-    HQM 8585   2.728   0.190   5.937 -0.0942  0.5015  0.3396
  239en-    HQM 8586   2.388   0.106   5.507  0.2359 -1.9177  0.9885
  239en-    CQM 8587   2.588   0.189   5.466  0.5616 -0.4063  0.0662
  239en-    CQM 8588   2.708   0.238   5.529  0.2893 -0.1805 -0.2361
  239en-    CQM 8589   2.805   0.297   5.450 -0.4696 -0.4200  0.1958
  239en-    CQM 8590   2.791   0.302   5.304 -0.2825  0.1371 -0.5621
  239en-    CQM 8591   2.897   0.343   5.221  0.3421 -0.2103  0.4963
  239en-    CQM 8592   2.878   0.353   5.081 -0.7205 -0.7011  0.0046
  239en-    CQM 8593   2.751   0.324   5.028 -0.0753 -0.9306  0.0071
  239en-    CQM 8594   2.646   0.271   5.108 -0.4430 -0.3087 -0.2996
  239en-    CQM 8595   2.665   0.264   5.243 -0.4122  0.2829 -0.0224
  239en-    CQM 8596   2.567   0.201   5.323  0.4157  0.4829 -0.0148
  239en-    HQM 8597   2.480   0.155   5.277 -0.0830  0.8707  0.5141
  239en-    HQM 8598   2.550   0.244   5.065  0.1138 -0.0516 -1.7227
  239en-    HQM 8599   2.730   0.335   4.922  1.0363  0.4566 -0.0878
  239en-    HQM 8600   2.959   0.384   5.015 -1.7540 -0.2241 -1.0638
  239en-    HQM 8601   2.992   0.384   5.253  0.4506  0.1593 -0.2941
  239en-    HQM 8602   2.900   0.327   5.493 -0.0523 -0.1073 -0.9292
  239en-    CQM 8603   2.726   0.231   5.666 -0.1821 -0.3521 -1.1036
  239en-    HQM 8604   2.815   0.270   5.716 -2.0854  1.3310  1.1059
  240en-    CQM 8605   0.017   3.653   5.726  0.3472  0.9929 -0.6475
  240en-    CQM 8606  -0.093   3.644   5.821  0.1698  0.0812  0.0235
  240en-    CQM 8607  -0.072   3.579   5.937 -0.5601 -0.0210 -0.1193
  240en-    CQM 8608  -0.163   3.584   6.035 -0.3705 -0.2826 -0.6111
  240en-    CQM 8609  -0.147   3.510   6.150  0.1189 -1.0015 -0.2406
  240en-    CQM 8610  -0.032   3.433   6.177  0.3530 -0.2461 -0.6676
  240en-    CQM 8611   0.069   3.438   6.080 -0.3324  0.2296 -0.3193
  240en-    CQM 8612   0.043   3.506   5.960 -0.0291 -0.0665  0.0745
  240en-    CQM 8613   0.150   3.517   5.871 -0.2642 -0.3982 -0.3904
  240en-    CQM 8614   0.134   3.587   5.751 -0.5349 -0.1977 -0.3773
  240en-    CQM 8615   0.001   3.709   5.593  0.0374 -0.4902 -0.3311
  240en-    HQM 8616  -0.193   3.683   5.807  0.1499 -0.0355 -0.1610
  240en-    HQM 8617  -0.242   3.659   6.039 -2.5596 -2.5222 -1.0886
  240en-    HQM 8618  -0.226   3.518   6.225 -0.9935 -1.6225 -1.3268
  240en-    HQM 8619  -0.020   3.383   6.272 -0.4243 -0.8129 -0.8680
  240en-    HQM 8620   0.159   3.381   6.098 -0.0421  1.0950  1.1337
  240en-    HQM 8621   0.247   3.475   5.897 -0.3449 -0.4319 -0.1342
  240en-    HQM 8622  -0.098   3.741   5.564 -1.1803 -1.4936  2.4874
  240en-    CQM 8623   0.108   3.715   5.500  0.1857  0.0124 -1.0863
  240en-    CQM 8624   0.226   3.646   5.533  0.5562 -0.3344  0.1233
  240en-    CQM 8625   0.325   3.640   5.433 -0.1573 -0.4749  0.9615
  240en-    CQM 8626   0.301   3.692   5.307  0.7601  0.6182 -0.3279
  240en-    CQM 8627   0.390   3.664   5.212  0.4357  0.6187 -0.0845
  240en-    CQM 8628   0.381   3.720   5.084 -0.1896  0.2319 -0.2645
  240en-    CQM 8629   0.271   3.800   5.053 -0.0671 -0.3562 -0.1235
  240en-    CQM 8630   0.174   3.824   5.155 -0.2597 -0.5673  0.3283
  240en-    CQM 8631   0.189   3.771   5.283  0.0435 -1.0412  0.6320
  240en-    CQM 8632   0.096   3.782   5.378  0.1608  0.0803  0.0018
  240en-    HQM 8633   0.003   3.838   5.368  0.3599  0.3755 -0.2166
  240en-    HQM 8634   0.089   3.887   5.133  0.1731  0.9293  2.8731
  240en-    HQM 8635   0.267   3.862   4.964  2.3990 -0.8595 -0.6016
  240en-    HQM 8636   0.454   3.690   5.009  0.6795  0.2471  0.5548
  240en-    HQM 8637   0.477   3.608   5.244  0.9983  1.3724 -0.2936
  240en-    HQM 8638   0.414   3.582   5.456 -0.2044 -0.1737  1.9196
  240en-    CQM 8639   0.238   3.580   5.655 -0.4100  0.1056 -0.2191
  240en-    HQM 8640   0.332   3.534   5.684 -1.0147 -0.7144  0.4542
  241en-    CQM 8641   2.739   3.396   0.122 -0.1382  0.0275  0.3646
  241en-    CQM 8642   2.639   3.355   0.212 -0.2798 -0.7872 -0.1047
  241en-    CQM 8643   2.666   3.341   0.345 -0.0160 -0.5907  0.1534
  241en-    CQM 8644   2.578   3.268   0.420 -0.1303  0.4949  0.0358
  241en-    CQM 8645   2.614   3.233   0.551  0.2736 -0.4617 -0.0192
  241en-    CQM 8646   2.735   3.271   0.604 -0.6701  0.3152 -0.2397
  241en-    CQM 8647   2.824   3.353   0.531 -0.0284 -1.2095  0.4173
  241en-    CQM 8648   2.795   3.383   0.395  0.1544  0.2137 -0.2417
  241en-    CQM 8649   2.894   3.434   0.306  0.0864 -0.7612 -0.2599
  241en-    CQM 8650   2.862   3.441   0.173 -0.1385 -0.9002  0.4428
  241en-    CQM 8651   2.720   3.403  -0.016 -0.0245 -0.6356  0.3762
  241en-    HQM 8652   2.537   3.329   0.184 -1.3330  0.2295  2.5447
  241en-    HQM 8653   2.480   3.239   0.386  0.3696 -1.3523  0.0831
  241en-    HQM 8654   2.551   3.162   0.604 -0.0012  0.6909  1.1981
  241en-    HQM 8655   2.760   3.234   0.703 -1.2323 -0.6295 -0.4526
  241en-    HQM 8656   2.923   3.373   0.569 -1.1478  2.1842  1.6533
  241en-    HQM 8657   2.997   3.460   0.331 -0.4216 -1.8256  3.1704
  241en-    HQM 8658   2.630   3.351  -0.047  0.3760 -1.5158  0.6376
  241en-    CQM 8659   2.812   3.465  -0.102 -0.4627 -0.8325  0.4696
  241en-    CQM 8660   2.938   3.505  -0.049  0.3695 -0.6856 -0.2517
  241en-    CQM 8661   3.041   3.550  -0.133 -0.0962  0.2199 -0.7216
  241en-    CQM 8662   3.014   3.553  -0.270  0.2351  0.6438  0.3793
  241en-    CQM 8663   3.112   3.604  -0.356  0.1759 -0.2677  0.1171
  241en-    CQM 8664   3.079   3.619  -0.496 -0.1183  0.4215  0.4877
  241en-    CQM 8665   2.956   3.569  -0.547  0.1606 -0.2614  0.2176
  241en-    CQM 8666   2.861   3.521  -0.459  0.4367  0.0893 -0.4984
  241en-    CQM 8667   2.893   3.512  -0.324 -0.0338 -0.4101  0.5353
  241en-    CQM 8668   2.789   3.463  -0.243 -0.4314  0.3588 -0.3075
  241en-    HQM 8669   2.688   3.431  -0.269 -0.7116 -1.7057  3.0389
  241en-    HQM 8670   2.762   3.498  -0.497 -0.3836  2.7270 -0.0811
  241en-    HQM 8671   2.924   3.572  -0.651  0.7107  1.4689  0.0960
  241en-    HQM 8672   3.144   3.660  -0.572  0.4260 -1.7077 -0.2439
  241en-    HQM 8673   3.210   3.636  -0.322  0.2821  0.5702 -0.9499
  241en-    HQM 8674   3.139   3.577  -0.093  0.7605 -1.1544 -1.8605
  241en-    CQM 8675   2.959   3.491   0.084  0.7105 -0.2134 -0.2250
  241en-    HQM 8676   3.048   3.526   0.135 -0.7941 -0.7638  2.8942
  242en-    CQM 8677   3.038   3.049   0.098 -0.2562  0.2848  0.2318
  242en-    CQM 8678   2.936   3.048   0.194 -0.4175  0.0340  0.0978
  242en-    CQM 8679   2.968   2.986   0.316  0.1464 -0.3126 -0.2627
  242en-    CQM 8680   2.866   2.987   0.411 -0.6759 -0.3116  0.4611
  242en-    CQM 8681   2.879   2.905   0.530 -0.1133  0.0697 -0.1589
  242en-    CQM 8682   3.005   2.850   0.556  0.2689  0.7372  0.5178
  242en-    CQM 8683   3.111   2.855   0.461  0.2301 -0.0846  0.1030
  242en-    CQM 8684   3.090   2.924   0.342  0.1837 -0.1013 -0.0492
  242en-    CQM 8685   3.192   2.940   0.244 -0.3206 -0.0171  0.0827
  242en-    CQM 8686   3.167   2.996   0.118 -0.5782 -0.4353 -0.2791
  242en-    CQM 8687   3.010   3.121  -0.021 -0.8808  0.3188  0.1398
  242en-    HQM 8688   2.848   3.109   0.175  0.4046  0.6629 -1.9133
  242en-    HQM 8689   2.773   3.041   0.396  0.8222  2.5014  0.9128
  242en-    HQM 8690   2.801   2.899   0.606  2.3302 -0.8265  2.3695
  242en-    HQM 8691   3.022   2.793   0.647  0.1577  1.6171  1.0914
  242en-    HQM 8692   3.200   2.796   0.480  0.5289  0.5258  0.6146
  242en-    HQM 8693   3.295   2.912   0.264 -0.1132  0.3097 -0.5482
  242en-    HQM 8694   2.913   3.166  -0.041 -1.6014 -0.0415  2.5858
  242en-    CQM 8695   3.109   3.139  -0.120  0.3281  0.5903 -0.1426
  242en-    CQM 8696   3.236   3.088  -0.098 -0.2380  0.6359 -0.2167
  242en-    CQM 8697   3.338   3.098  -0.196  0.3141 -0.3867 -0.2666
  242en-    CQM 8698   3.319   3.166  -0.308 -0.4274 -0.2759  0.2603
  242en-    CQM 8699   3.416   3.172  -0.409 -0.4576  0.7189 -0.1876
  242en-    CQM 8700   3.379   3.211  -0.540  0.2169 -0.3454 -0.1306
  242en-    CQM 8701   3.250   3.254  -0.569 -0.2129 -0.3144 -0.1530
  242en-    CQM 8702   3.160   3.272  -0.459 -0.2627 -0.0015  0.5520
  242en-    CQM 8703   3.189   3.217  -0.334  1.1641 -0.0932 -0.0958
  242en-    CQM 8704   3.088   3.209  -0.235  0.2645  0.7244  0.4272
  242en-    HQM 8705   2.993   3.258  -0.257 -0.2176 -0.0138  0.8381
  242en-    HQM 8706   3.061   3.316  -0.471 -0.0741  1.1734  3.1268
  242en-    HQM 8707   3.229   3.284  -0.671  2.4307 -1.3673 -1.0446
  242en-    HQM 8708   3.458   3.202  -0.614 -0.1705  1.3483 -0.7531
  242en-    HQM 8709   3.514   3.125  -0.399 -0.5706 -0.0368 -2.4105
  242en-    HQM 8710   3.433   3.049  -0.179 -1.0282 -2.6883  0.7838
  242en-    CQM 8711   3.266   3.012   0.017  0.4728  0.3083 -0.1527
  242en-    HQM 8712   3.363   2.967   0.036  0.2921  0.2453  0.6153
  243en-    CQM 8713   2.824   3.709   1.505  0.2850  0.0066  0.2188
  243en-    CQM 8714   2.719   3.657   1.585  0.1465  0.2174 -0.1692
  243en-    CQM 8715   2.735   3.642   1.722  0.5618 -0.0141  0.6739
  243en-    CQM 8716   2.634   3.590   1.805  0.3404  0.1071  0.9455
  243en-    CQM 8717   2.661   3.577   1.946 -0.2671  0.2001  0.2440
  243en-    CQM 8718   2.780   3.618   2.003  0.9664 -0.3811  0.2557
  243en-    CQM 8719   2.877   3.672   1.923  0.0608  0.3902 -0.2865
  243en-    CQM 8720   2.854   3.684   1.783  0.7457  0.6801 -0.2096
  243en-    CQM 8721   2.954   3.748   1.708 -0.2011  0.4462  0.4049
  243en-    CQM 8722   2.941   3.755   1.565 -0.2261  0.2028 -0.0886
  243en-    CQM 8723   2.797   3.717   1.367 -0.2713  0.9842 -0.3633
  243en-    HQM 8724   2.630   3.618   1.537  0.6611  1.3502 -2.0971
  243en-    HQM 8725   2.548   3.533   1.772  1.3765 -1.3976  0.8240
  243en-    HQM 8726   2.592   3.526   2.013 -0.0832 -0.4889 -0.0942
  243en-    HQM 8727   2.807   3.589   2.104 -2.7390  0.3034  1.5322
  243en-    HQM 8728   2.963   3.713   1.976 -1.8916  2.0904  1.6581
  243en-    HQM 8729   3.041   3.790   1.758  0.0323 -0.2280  0.5671
  243en-    HQM 8730   2.705   3.675   1.328  1.1269 -1.9603 -0.5920
  243en-    CQM 8731   2.892   3.775   1.283 -0.3618 -0.0421 -0.5789
  243en-    CQM 8732   3.014   3.825   1.340  0.7222  0.4284  0.0644
  243en-    CQM 8733   3.108   3.884   1.252  0.0651  0.1438  0.3168
  243en-    CQM 8734   3.087   3.896   1.111 -0.0451 -0.2978  0.1314
  243en-    CQM 8735   3.184   3.948   1.022  0.3831  0.2560 -0.1707
  243en-    CQM 8736   3.150   3.961   0.884 -0.0219 -0.2766  0.6004
  243en-    CQM 8737   3.031   3.914   0.835 -0.2400  0.2871  0.2532
  243en-    CQM 8738   2.933   3.860   0.926 -0.5642  0.4798 -0.4039
  243en-    CQM 8739   2.962   3.846   1.062 -0.0654  0.1655  0.6176
  243en-    CQM 8740   2.866   3.787   1.148  0.3098 -0.2948  0.0768
  243en-    HQM 8741   2.778   3.740   1.105 -0.0522 -0.2626  0.7745
  243en-    HQM 8742   2.840   3.824   0.883 -0.1177  1.4418 -2.2262
  243en-    HQM 8743   3.008   3.924   0.729 -0.2049  0.0348  0.2209
  243en-    HQM 8744   3.207   4.018   0.812  1.2010 -2.6582 -0.3616
  243en-    HQM 8745   3.274   3.998   1.055  0.1605  1.7434 -1.7568
  243en-    HQM 8746   3.200   3.928   1.289  1.3991 -1.7381 -0.6669
  243en-    CQM 8747   3.035   3.817   1.478  0.2382  0.6273  0.2380
  243en-    HQM 8748   3.118   3.879   1.510 -0.7704  0.9901  2.1706
  244en-    CQM 8749   3.090   3.397   1.502  0.1670  0.0419  0.5343
  244en-    CQM 8750   2.993   3.402   1.605  0.1713  0.1042 -0.1282
  244en-    CQM 8751   3.021   3.334   1.730 -0.1356 -0.2743 -0.4377
  244en-    CQM 8752   2.924   3.341   1.833 -0.0764  0.1922 -0.1746
  244en-    CQM 8753   2.954   3.275   1.953 -0.5218 -0.6298  0.3615
  244en-    CQM 8754   3.076   3.190   1.967  0.4578 -0.2689 -1.1012
  244en-    CQM 8755   3.175   3.202   1.865 -0.8654 -0.0254  0.2053
  244en-    CQM 8756   3.150   3.279   1.748  0.5979  0.4208 -0.0556
  244en-    CQM 8757   3.248   3.287   1.645 -0.3879 -0.4425  0.3427
  244en-    CQM 8758   3.220   3.349   1.524 -0.0983 -0.6617  0.2073
  244en-    CQM 8759   3.063   3.455   1.379 -0.1672 -0.4383  0.6805
  244en-    HQM 8760   2.896   3.449   1.589  0.2047 -0.5864 -2.4732
  244en-    HQM 8761   2.835   3.400   1.815 -0.1301  0.0761 -0.2892
  244en-    HQM 8762   2.877   3.264   2.029  0.0301 -3.4990  0.5517
  244en-    HQM 8763   3.087   3.123   2.051 -0.2502 -1.4697 -1.9438
  244en-    HQM 8764   3.278   3.165   1.872 -0.6536  0.1271 -1.8165
  244en-    HQM 8765   3.346   3.240   1.655 -0.4255 -0.4138  0.8801
  244en-    HQM 8766   2.968   3.505   1.358 -0.0687 -1.1775 -1.6762
  244en-    CQM 8767   3.158   3.461   1.272  0.3100  0.7032  0.2421
  244en-    CQM 8768   3.286   3.420   1.300  0.3705 -0.6539 -0.3946
  244en-    CQM 8769   3.382   3.421   1.205  0.3956 -0.4395 -0.6921
  244en-    CQM 8770   3.351   3.472   1.073 -0.6846 -0.2771  0.1608
  244en-    CQM 8771   3.459   3.483   0.977 -0.6266 -0.0687 -0.3804
  244en-    CQM 8772   3.433   3.551   0.860 -0.2205  0.1861  0.8789
  244en-    CQM 8773   3.307   3.609   0.835  0.4051 -0.6719  0.2220
  244en-    CQM 8774   3.208   3.593   0.930  0.2787  0.8480  0.1744
  244en-    CQM 8775   3.228   3.530   1.048 -0.7079  0.9325 -0.3634
  244en-    CQM 8776   3.135   3.527   1.152  0.2234  0.0359 -0.0227
  244en-    HQM 8777   3.037   3.572   1.135  0.6132 -0.1385 -3.0499
  244en-    HQM 8778   3.108   3.633   0.913  0.6254  0.9447 -1.8027
  244en-    HQM 8779   3.291   3.660   0.741 -1.4894  0.1611  0.9744
  244en-    HQM 8780   3.511   3.564   0.786  2.2968 -1.5579  3.1462
  244en-    HQM 8781   3.556   3.435   0.986 -1.1723 -0.9426  0.9871
  244en-    HQM 8782   3.481   3.385   1.228 -0.2154 -3.4238 -2.5079
  244en-    CQM 8783   3.315   3.360   1.423 -0.5855 -0.2920 -0.2451
  244en-    HQM 8784   3.416   3.325   1.442  0.3123  2.1254 -0.4092
  245en-    CQM 8785   2.452   0.198   2.902 -0.1930  0.0966 -0.2041
  245en-    CQM 8786   2.348   0.148   2.990  0.4533  0.0056 -0.3219
  245en-    CQM 8787   2.366   0.142   3.126  0.9616  0.1883 -0.2887
  245en-    CQM 8788   2.267   0.078   3.208 -0.1907  0.4106 -0.2207
  245en-    CQM 8789   2.286   0.066   3.344  0.0754  0.6714 -0.6864
  245en-    CQM 8790   2.402   0.120   3.395 -0.0013 -0.1794 -0.0277
  245en-    CQM 8791   2.512   0.167   3.315  0.1061  0.4309 -0.3585
  245en-    CQM 8792   2.492   0.184   3.181  0.5113 -0.2104 -0.1183
  245en-    CQM 8793   2.595   0.231   3.097 -0.3145 -0.5894 -0.2485
  245en-    CQM 8794   2.571   0.247   2.959  0.1368  0.1005 -0.2582
  245en-    CQM 8795   2.436   0.202   2.762  0.0777 -0.0861  0.3895
  245en-    HQM 8796   2.259   0.116   2.938 -0.0969 -0.1039  0.6876
  245en-    HQM 8797   2.179   0.033   3.164  1.5997 -2.6772 -0.7398
  245en-    HQM 8798   2.213   0.016   3.406  0.8129  1.0676  0.5261
  245en-    HQM 8799   2.419   0.101   3.500  0.9002  0.4452 -0.0467
  245en-    HQM 8800   2.609   0.187   3.359  1.2312  0.0309 -2.5888
  245en-    HQM 8801   2.687   0.266   3.142  0.5320 -0.1008 -2.2765
  245en-    HQM 8802   2.345   0.157   2.723 -1.1294  1.4498  1.3583
  245en-    CQM 8803   2.538   0.258   2.683  0.5943  0.3323  0.6740
  245en-    CQM 8804   2.656   0.299   2.744  0.2667 -0.6932  0.0784
  245en-    CQM 8805   2.760   0.342   2.663 -0.3067 -0.2433  0.1787
  245en-    CQM 8806   2.743   0.363   2.528 -0.4409 -0.1125  0.1805
  245en-    CQM 8807   2.858   0.396   2.445  0.2764  0.2522 -0.3951
  245en-    CQM 8808   2.835   0.424   2.304  0.0975  0.1094  0.4861
  245en-    CQM 8809   2.706   0.408   2.252  0.1686 -0.3554 -0.0086
  245en-    CQM 8810   2.600   0.356   2.335  0.5292  0.0103  0.5202
  245en-    CQM 8811   2.619   0.331   2.468 -0.4368  0.4631  0.3746
  245en-    CQM 8812   2.517   0.277   2.549  0.2208 -0.0976  0.4020
  245en-    HQM 8813   2.420   0.247   2.511  0.9196 -0.1751 -1.3653
  245en-    HQM 8814   2.501   0.339   2.294  0.8342 -0.3470 -0.0786
  245en-    HQM 8815   2.683   0.434   2.149 -1.7685 -0.1978  0.4350
  245en-    HQM 8816   2.924   0.446   2.246  0.5928 -1.3217  0.6855
  245en-    HQM 8817   2.957   0.414   2.486 -0.1768  2.3875 -0.1659
  245en-    HQM 8818   2.855   0.367   2.709 -0.0316 -1.6546  0.4210
  245en-    CQM 8819   2.670   0.293   2.881 -0.4976 -0.0721 -0.7138
  245en-    HQM 8820   2.761   0.333   2.925  2.2596 -2.5775 -3.8414
  246en-    CQM 8821   3.108   3.715   2.923 -1.1054  0.1376 -0.6351
  246en-    CQM 8822   3.012   3.721   3.027 -0.4251 -0.0019 -0.0391
  246en-    CQM 8823   3.033   3.645   3.147 -0.0761 -0.5241  0.3003
  246en-    CQM 8824   2.942   3.660   3.250 -0.2921  0.4224 -0.3204
  246en-    CQM 8825   2.965   3.602   3.376 -0.1981 -0.0222  0.8501
  246en-    CQM 8826   3.087   3.526   3.391  0.4005  0.0746 -0.6402
  246en-    CQM 8827   3.179   3.517   3.286  0.5600  0.3401  0.4704
  246en-    CQM 8828   3.157   3.575   3.163 -0.7386 -0.5654 -0.2249
  246en-    CQM 8829   3.253   3.567   3.058 -0.2811  0.4343 -0.3221
  246en-    CQM 8830   3.223   3.633   2.940  0.3030 -0.1813 -0.1226
  246en-    CQM 8831   3.090   3.778   2.796 -0.6176  0.0331 -0.2019
  246en-    HQM 8832   2.921   3.777   3.011 -0.1078  0.6104  0.2737
  246en-    HQM 8833   2.863   3.731   3.227 -1.0862 -0.1040  0.7875
  246en-    HQM 8834   2.891   3.606   3.455 -0.4172 -1.3609  0.7203
  246en-    HQM 8835   3.108   3.478   3.486  0.0924 -1.3717 -1.2822
  246en-    HQM 8836   3.273   3.463   3.297  1.0381  1.0095 -0.1932
  246en-    HQM 8837   3.352   3.524   3.069  0.3567  1.9927  0.2289
  246en-    HQM 8838   3.008   3.849   2.788 -0.7332 -0.0059  0.5619
  246en-    CQM 8839   3.192   3.776   2.703  0.5459  0.1040  0.6606
  246en-    CQM 8840   3.312   3.703   2.718 -0.2712 -0.9984  0.7634
  246en-    CQM 8841   3.405   3.703   2.609 -0.1397 -0.9560 -0.3235
  246en-    CQM 8842   3.380   3.769   2.487  0.1699  0.4609 -0.3564
  246en-    CQM 8843   3.474   3.766   2.382  0.0869 -0.5127  0.6662
  246en-    CQM 8844   3.454   3.840   2.268  0.2934 -0.5659 -0.0501
  246en-    CQM 8845   3.337   3.917   2.255  0.7629 -0.9212 -0.2839
  246en-    CQM 8846   3.243   3.916   2.363 -0.1951 -0.1435  0.1281
  246en-    CQM 8847   3.266   3.845   2.479  0.5551  0.5204 -0.3177
  246en-    CQM 8848   3.171   3.845   2.581  0.7888 -0.5712 -0.1843
  246en-    HQM 8849   3.076   3.896   2.569  0.0615 -1.9712 -0.3899
  246en-    HQM 8850   3.152   3.975   2.350 -1.1489 -1.7365 -0.5807
  246en-    HQM 8851   3.315   3.984   2.172  2.6974 -1.1791 -1.0335
  246en-    HQM 8852   3.529   3.841   2.189  0.8577  0.0484  0.4931
  246en-    HQM 8853   3.561   3.701   2.387 -1.1407 -2.1893  0.5758
  246en-    HQM 8854   3.500   3.649   2.615 -0.4814 -1.6606 -1.2088
  246en-    CQM 8855   3.326   3.635   2.837 -0.0333 -0.7753  0.2430
  246en-    HQM 8856   3.415   3.577   2.860 -1.3656 -2.5649  1.0435
  247en-    CQM 8857   2.506   0.541   4.296  0.5816  0.5129  0.3551
  247en-    CQM 8858   2.404   0.498   4.384  0.9614 -0.1521 -0.0226
  247en-    CQM 8859   2.421   0.497   4.526  0.1806 -0.4794 -0.5229
  247en-    CQM 8860   2.315   0.459   4.609 -0.2300 -0.0155  0.4123
  247en-    CQM 8861   2.325   0.481   4.747  0.5903  0.0770 -0.2801
  247en-    CQM 8862   2.441   0.524   4.805 -0.7639  0.3069 -0.7297
  247en-    CQM 8863   2.559   0.538   4.724  0.2133 -0.1703  0.4955
  247en-    CQM 8864   2.547   0.535   4.580  0.5201  0.0973 -0.0018
  247en-    CQM 8865   2.650   0.567   4.487 -0.5726  0.4757  0.1904
  247en-    CQM 8866   2.628   0.576   4.350  0.0855 -0.8089  0.0118
  247en-    CQM 8867   2.485   0.557   4.161  0.0634  0.8149  0.1332
  247en-    HQM 8868   2.307   0.467   4.347  0.3580  0.3322  1.1555
  247en-    HQM 8869   2.233   0.411   4.557 -0.3971  0.8675 -0.1396
  247en-    HQM 8870   2.245   0.450   4.813  1.4511 -0.3201  0.5855
  247en-    HQM 8871   2.443   0.535   4.913  2.7477  1.6216 -0.8477
  247en-    HQM 8872   2.655   0.563   4.767  0.1237 -0.4752  0.8692
  247en-    HQM 8873   2.740   0.605   4.535 -0.3581  0.9125 -0.5666
  247en-    HQM 8874   2.393   0.518   4.119  0.9794  0.3761 -1.5293
  247en-    CQM 8875   2.585   0.612   4.079  0.0453  0.6833 -0.3629
  247en-    CQM 8876   2.707   0.656   4.135 -0.7261  0.8350 -0.3774
  247en-    CQM 8877   2.800   0.706   4.049 -0.7771  0.1405  0.0414
  247en-    CQM 8878   2.782   0.714   3.913  0.0336 -0.2319 -0.2765
  247en-    CQM 8879   2.881   0.767   3.829 -0.2382  1.3178 -0.5526
  247en-    CQM 8880   2.856   0.774   3.694 -0.2879  0.5583 -0.2300
  247en-    CQM 8881   2.736   0.733   3.634  0.4824 -0.3038 -0.0977
  247en-    CQM 8882   2.637   0.680   3.719 -0.9409 -0.2590 -0.5032
  247en-    CQM 8883   2.657   0.672   3.857  0.0878 -0.3768  0.7206
  247en-    CQM 8884   2.553   0.625   3.938 -0.2267  0.8695 -0.2942
  247en-    HQM 8885   2.459   0.592   3.895  1.2373 -1.0451 -2.1190
  247en-    HQM 8886   2.542   0.665   3.670  0.2909 -1.3691 -2.5911
  247en-    HQM 8887   2.716   0.746   3.528 -1.0508 -0.4462  0.1544
  247en-    HQM 8888   2.934   0.823   3.637  2.9834 -1.5722  2.2940
  247en-    HQM 8889   2.975   0.798   3.873 -0.7615  0.7385  0.9695
  247en-    HQM 8890   2.899   0.732   4.085  0.2084 -2.8365 -0.3299
  247en-    CQM 8891   2.727   0.637   4.268  0.4889 -0.3396 -0.9684
  247en-    HQM 8892   2.822   0.667   4.311 -1.6185  1.6841  2.5235
  248en-    CQM 8893   2.794   0.222   4.339 -0.2408 -0.0117 -0.3267
  248en-    CQM 8894   2.701   0.236   4.449 -0.3373 -0.6225 -0.5213
  248en-    CQM 8895   2.729   0.165   4.569  0.4126  0.3756 -0.2972
  248en-    CQM 8896   2.639   0.163   4.675 -0.0556  0.4044 -0.2750
  248en-    CQM 8897   2.670   0.099   4.794  0.5138 -0.3288  0.4583
  248en-    CQM 8898   2.791   0.030   4.810  0.4595  0.1337  0.5402
  248en-    CQM 8899   2.882   0.032   4.705 -0.5129  0.1060 -0.3881
  248en-    CQM 8900   2.852   0.095   4.583 -0.4457  0.2247 -0.1408
  248en-    CQM 8901   2.947   0.091   4.478  0.2746  0.6052  0.4967
  248en-    CQM 8902   2.917   0.152   4.357  0.3414  0.2441  0.6517
  248en-    CQM 8903   2.774   0.290   4.219 -0.0900 -0.1717  0.2218
  248en-    HQM 8904   2.610   0.293   4.434 -0.3543  0.0688  1.9564
  248en-    HQM 8905   2.543   0.211   4.667  0.4424  1.3639 -0.5778
  248en-    HQM 8906   2.596   0.111   4.872 -0.1030  2.1160 -0.4676
  248en-    HQM 8907   2.811  -0.032   4.896 -0.9592  2.3095  2.4951
  248en-    HQM 8908   2.973  -0.025   4.718 -1.0025  0.0200  2.9871
  248en-    HQM 8909   3.045   0.046   4.490  0.6919  0.9183 -1.5751
  248en-    HQM 8910   2.682   0.345   4.206 -0.2730 -0.2590  1.1245
  248en-    CQM 8911   2.868   0.285   4.115  0.3703  0.3076 -0.2149
  248en-    CQM 8912   2.987   0.215   4.132 -0.2646  0.2859 -0.2425
  248en-    CQM 8913   3.081   0.219   4.032  0.1963  0.3715  0.4301
  248en-    CQM 8914   3.052   0.271   3.906  0.0299 -0.6341  0.5196
  248en-    CQM 8915   3.147   0.264   3.797 -0.5102 -0.0679 -0.8166
  248en-    CQM 8916   3.111   0.313   3.672  1.1297  0.1889  0.1290
  248en-    CQM 8917   2.985   0.367   3.647  0.0097 -0.2844  0.2224
  248en-    CQM 8918   2.896   0.376   3.758 -0.3373  0.4135 -0.1372
  248en-    CQM 8919   2.927   0.332   3.887 -0.2745  0.2723 -0.3362
  248en-    CQM 8920   2.838   0.343   3.993  0.8272 -0.6077  0.8242
  248en-    HQM 8921   2.740   0.388   3.983  0.5492 -1.3863  0.0181
  248en-    HQM 8922   2.800   0.424   3.741 -0.4001  0.8318  1.3539
  248en-    HQM 8923   2.954   0.401   3.549  1.9937  1.5086  0.1787
  248en-    HQM 8924   3.179   0.296   3.589  2.6996  2.7508  0.8224
  248en-    HQM 8925   3.246   0.223   3.812 -0.7094 -0.7141 -1.2347
  248en-    HQM 8926   3.171   0.160   4.041 -0.4894 -0.5849  1.1489
  248en-    CQM 8927   3.010   0.151   4.258 -0.5374 -0.2824 -0.2709
  248en-    HQM 8928   3.108   0.105   4.272 -0.1983 -0.2643 -2.4217
  249en-    CQM 8929   2.571   0.884   5.685  0.2907  0.5033 -0.7805
  249en-    CQM 8930   2.470   0.820   5.769 -0.1542  0.5169  0.2946
  249en-    CQM 8931   2.486   0.816   5.913  0.1063  0.2280 -0.0169
  249en-    CQM 8932   2.379   0.763   5.991 -0.6888 -1.1324 -0.6130
  249en-    CQM 8933   2.392   0.762   6.132  0.7443  0.2022  0.0831
  249en-    CQM 8934   2.514   0.803   6.188  0.2462 -0.6640  0.5255
  249en-    CQM 8935   2.619   0.859   6.109  0.1018 -0.0060 -0.3373
  249en-    CQM 8936   2.607   0.863   5.966  0.1297 -0.2603 -0.5100
  249en-    CQM 8937   2.708   0.917   5.886  0.4447  0.1811  0.3389
  249en-    CQM 8938   2.687   0.933   5.745  0.6570 -0.8988 -0.4360
  249en-    CQM 8939   2.547   0.899   5.549 -0.2776  0.0282  0.7707
  249en-    HQM 8940   2.380   0.781   5.722  0.4433  0.0370 -0.4762
  249en-    HQM 8941   2.291   0.722   5.942 -0.4467 -0.8156 -1.3338
  249en-    HQM 8942   2.316   0.718   6.195  0.3586 -0.2739 -0.7068
  249en-    HQM 8943   2.525   0.798   6.296 -1.1503  0.5621  0.7327
  249en-    HQM 8944   2.712   0.893   6.155  0.8157 -1.2666 -0.8501
  249en-    HQM 8945   2.802   0.944   5.934  0.0721 -1.5511  2.1321
  249en-    HQM 8946   2.452   0.866   5.508  1.2652 -0.9105 -2.2491
  249en-    CQM 8947   2.651   0.961   5.466  0.2326 -0.1421 -0.2242
  249en-    CQM 8948   2.771   1.002   5.527  0.2116  0.4575 -0.2195
  249en-    CQM 8949   2.872   1.060   5.454 -0.7195 -0.0987  0.6841
  249en-    CQM 8950   2.851   1.080   5.316  0.2248 -0.9336 -0.0607
  249en-    CQM 8951   2.947   1.142   5.240 -0.0604 -0.3883 -0.8073
  249en-    CQM 8952   2.932   1.154   5.101 -0.1329  0.2209 -0.5729
  249en-    CQM 8953   2.817   1.114   5.035  0.4269  0.4428 -0.3374
  249en-    CQM 8954   2.717   1.055   5.116 -0.0235 -0.5882  0.2031
  249en-    CQM 8955   2.730   1.039   5.255  0.4429 -0.4279  0.1374
  249en-    CQM 8956   2.627   0.984   5.328  0.2828  0.1395 -0.1212
  249en-    HQM 8957   2.533   0.962   5.280  0.8371  1.6437 -1.9637
  249en-    HQM 8958   2.625   1.026   5.066  0.6048 -0.2404 -1.1640
  249en-    HQM 8959   2.806   1.115   4.927 -1.8092 -0.0686 -0.1293
  249en-    HQM 8960   3.018   1.197   5.050  0.4969 -0.2015  0.1256
  249en-    HQM 8961   3.040   1.171   5.287 -0.2558 -2.3309  0.8678
  249en-    HQM 8962   2.965   1.097   5.497  0.2546  0.7645 -2.0218
  249en-    CQM 8963   2.790   0.983   5.662  0.2981  0.5224 -0.2825
  249en-    HQM 8964   2.891   1.002   5.697 -0.1196  0.6669  0.9010
  250en-    CQM 8965   2.857   0.565   5.724  0.0099  0.3986  0.3831
  250en-    CQM 8966   2.759   0.566   5.821  0.4771  0.0606  0.2192
  250en-    CQM 8967   2.773   0.492   5.938  0.0423 -0.5785 -0.6632
  250en-    CQM 8968   2.663   0.478   6.022  0.8757  0.4285  0.2706
  250en-    CQM 8969   2.675   0.401   6.140 -0.8410 -0.8443 -0.0593
  250en-    CQM 8970   2.798   0.340   6.176  0.8622  0.4098  0.4362
  250en-    CQM 8971   2.907   0.348   6.088 -0.1471  0.0124 -0.9105
  250en-    CQM 8972   2.894   0.425   5.968  0.0519 -0.3256 -0.5479
  250en-    CQM 8973   2.998   0.436   5.869  0.0152  0.4959 -0.1647
  250en-    CQM 8974   2.981   0.503   5.752 -0.4078  0.6083  0.3304
  250en-    CQM 8975   2.837   0.624   5.602 -0.2803  0.6471  0.3188
  250en-    HQM 8976   2.666   0.618   5.801  0.6733  1.2649  2.3580
  250en-    HQM 8977   2.570   0.526   5.992 -0.4556 -0.8943  2.1322
  250en-    HQM 8978   2.591   0.395   6.209 -0.8362  0.2611  0.0489
  250en-    HQM 8979   2.798   0.280   6.266  0.4117  0.3683  0.4103
  250en-    HQM 8980   3.002   0.303   6.115 -0.0063 -0.5911 -2.3972
  250en-    HQM 8981   3.095   0.390   5.882  0.4128  1.4003  0.1587
  250en-    HQM 8982   2.746   0.679   5.579 -0.1012  0.2523 -1.3752
  250en-    CQM 8983   2.936   0.625   5.504 -0.2516 -0.8049 -0.2601
  250en-    CQM 8984   3.057   0.564   5.523  0.5850  0.3830 -0.8715
  250en-    CQM 8985   3.147   0.556   5.417  0.1823  0.2114 -0.3592
  250en-    CQM 8986   3.118   0.613   5.295  0.3588  0.0841 -0.1087
  250en-    CQM 8987   3.207   0.617   5.187 -0.3316  0.0008  0.5378
  250en-    CQM 8988   3.181   0.700   5.074 -0.0578  0.6999 -0.1443
  250en-    CQM 8989   3.056   0.759   5.062  0.6818 -0.0808 -0.2955
  250en-    CQM 8990   2.965   0.753   5.169 -0.6530  0.3171  0.2435
  250en-    CQM 8991   2.997   0.682   5.280  0.8095  0.3421 -0.7844
  250en-    CQM 8992   2.904   0.687   5.383 -0.2361 -0.8849 -0.0763
  250en-    HQM 8993   2.808   0.736   5.369 -0.5048 -1.6198 -0.8817
  250en-    HQM 8994   2.868   0.802   5.161 -0.0101  1.3091 -1.7393
  250en-    HQM 8995   3.024   0.822   4.979 -1.1655 -2.5536 -1.4991
  250en-    HQM 8996   3.261   0.699   5.001 -1.8157 -5.4318 -2.2605
  250en-    HQM 8997   3.300   0.563   5.197 -0.2934 -0.7274 -3.0738
  250en-    HQM 8998   3.242   0.504   5.429 -0.7078 -1.7503 -1.5645
  250en-    CQM 8999   3.078   0.500   5.649 -0.0604  0.0536  0.0431
  250en-    HQM 9000   3.170   0.443   5.655 -1.8477 -2.8060  1.4420
   3.13765   3.83925   7.02835   0.00000   0.00000   0.36835   0.00000   0.25075   1.63865
