;
; Topology from AMBER
; ambgro
;
; The force field files to be included
#define _FF_USER

[ defaults ]
;nbfunc     comb-rule      gen-pairs     fudgeLJ      fudgeQQ
      1             2            yes         0.5      0.833333

[ atomtypes ]
; name        mass      charge    ptype               sigma             epsilon
    ca     12.0100     0.02190        A        3.399676e-01        3.598240e-01 ;     1.91  0.0860
    ha      1.0080     0.15089        A        2.599647e-01        6.276000e-02 ;     1.46  0.0150


 [ moleculetype ]
; name  nrexcl
molecule   3

 [ atoms ]
;  nr    type   resnr   residu   atom   cgnr    charge      mass
     1      ca       1      en-     CQM      1   0.02190  12.01000
     2      ca       1      en-     CQM      2  -0.19370  12.01000
     3      ca       1      en-     CQM      3   0.09508  12.01000
     4      ca       1      en-     CQM      4  -0.24027  12.01000
     5      ca       1      en-     CQM      5  -0.12355  12.01000
     6      ca       1      en-     CQM      6  -0.12355  12.01000
     7      ca       1      en-     CQM      7  -0.24027  12.01000
     8      ca       1      en-     CQM      8   0.09508  12.01000
     9      ca       1      en-     CQM      9  -0.19370  12.01000
    10      ca       1      en-     CQM     10   0.02190  12.01000
    11      ca       1      en-     CQM     11  -0.17275  12.01000
    12      ha       1      en-     HQM     12   0.15089   1.00800
    13      ha       1      en-     HQM     13   0.15862   1.00800
    14      ha       1      en-     HQM     14   0.14484   1.00800
    15      ha       1      en-     HQM     15   0.14484   1.00800
    16      ha       1      en-     HQM     16   0.15862   1.00800
    17      ha       1      en-     HQM     17   0.15089   1.00800
    18      ha       1      en-     HQM     18   0.14513   1.00800
    19      ca       1      en-     CQM     19   0.02190  12.01000
    20      ca       1      en-     CQM     20   0.02190  12.01000
    21      ca       1      en-     CQM     21  -0.19370  12.01000
    22      ca       1      en-     CQM     22   0.09508  12.01000
    23      ca       1      en-     CQM     23  -0.24027  12.01000
    24      ca       1      en-     CQM     24  -0.12355  12.01000
    25      ca       1      en-     CQM     25  -0.12355  12.01000
    26      ca       1      en-     CQM     26  -0.24027  12.01000
    27      ca       1      en-     CQM     27   0.09508  12.01000
    28      ca       1      en-     CQM     28  -0.19370  12.01000
    29      ha       1      en-     HQM     29   0.15089   1.00800
    30      ha       1      en-     HQM     30   0.15862   1.00800
    31      ha       1      en-     HQM     31   0.14484   1.00800
    32      ha       1      en-     HQM     32   0.14484   1.00800
    33      ha       1      en-     HQM     33   0.15862   1.00800
    34      ha       1      en-     HQM     34   0.15089   1.00800
    35      ca       1      en-     CQM     35  -0.17275  12.01000
    36      ha       1      en-     HQM     36   0.14513   1.00800

 [ bonds ]
;   ai  aj   funct      b0          kb
       1     2   1     0.13984      385848.   ;C1  -C2  
       1    10   1     0.13984      385848.   ;C1  -C10 
       1    11   1     0.13984      385848.   ;C1  -C11 
       2     3   1     0.13984      385848.   ;C2  -C3  
       3     4   1     0.13984      385848.   ;C3  -C4  
       3     8   1     0.13984      385848.   ;C3  -C8  
       4     5   1     0.13984      385848.   ;C4  -C5  
       5     6   1     0.13984      385848.   ;C5  -C6  
       6     7   1     0.13984      385848.   ;C6  -C7  
       7     8   1     0.13984      385848.   ;C7  -C8  
       8     9   1     0.13984      385848.   ;C8  -C9  
       9    10   1     0.13984      385848.   ;C9  -C10 
      10    35   1     0.13984      385848.   ;C10 -C22 
      11    19   1     0.13984      385848.   ;C11 -C12 
      19    20   1     0.13984      385848.   ;C12 -C13 
      19    28   1     0.13984      385848.   ;C12 -C21 
      20    21   1     0.13984      385848.   ;C13 -C14 
      20    35   1     0.13984      385848.   ;C13 -C22 
      21    22   1     0.13984      385848.   ;C14 -C15 
      22    23   1     0.13984      385848.   ;C15 -C16 
      22    27   1     0.13984      385848.   ;C15 -C20 
      23    24   1     0.13984      385848.   ;C16 -C17 
      24    25   1     0.13984      385848.   ;C17 -C18 
      25    26   1     0.13984      385848.   ;C18 -C19 
      26    27   1     0.13984      385848.   ;C19 -C20 
      27    28   1     0.13984      385848.   ;C20 -C21 
       2    12   1     0.10860      289365.   ;C2  -H1  
       4    13   1     0.10860      289365.   ;C4  -H2  
       5    14   1     0.10860      289365.   ;C5  -H3  
       6    15   1     0.10860      289365.   ;C6  -H4  
       7    16   1     0.10860      289365.   ;C7  -H5  
       9    17   1     0.10860      289365.   ;C9  -H6  
      11    18   1     0.10860      289365.   ;C11 -H7  
      21    34   1     0.10860      289365.   ;C14 -H13 
      23    33   1     0.10860      289365.   ;C16 -H12 
      24    32   1     0.10860      289365.   ;C17 -H11 
      25    31   1     0.10860      289365.   ;C18 -H10 
      26    30   1     0.10860      289365.   ;C19 -H9  
      28    29   1     0.10860      289365.   ;C21 -H8  
      35    36   1     0.10860      289365.   ;C22 -H14 

 [ pairs ]
       1       4  1
       1       8  1
       1      20  1
       1      28  1
       2       9  1
       2      35  1
       2      19  1
       2       5  1
       2       7  1
      10       3  1
      11       3  1
       3       6  1
       4       7  1
       4       9  1
       5       8  1
       6       9  1
       7      10  1
       8      35  1
      11       9  1
       9      20  1
      10      19  1
      10      21  1
      11      35  1
      11      21  1
      11      27  1
      19      22  1
      19      26  1
      20      27  1
      20      23  1
      21      28  1
      21      24  1
      21      26  1
      22      35  1
      22      25  1
      23      26  1
      23      28  1
      24      27  1
      25      28  1
      28      35  1
       1      17  1
       1      36  1
       2      18  1
       2      13  1
       3      14  1
       3      16  1
       3      17  1
       4      12  1
       4      15  1
       5      16  1
       6      13  1
       7      14  1
       7      17  1
       8      12  1
       8      13  1
       8      15  1
       9      16  1
       9      36  1
      10      12  1
      10      18  1
      11      12  1
      11      29  1
      13      14  1
      14      15  1
      15      16  1
      17      35  1
      18      20  1
      18      28  1
      19      34  1
      19      36  1
      20      29  1
      21      36  1
      21      33  1
      22      32  1
      22      30  1
      22      29  1
      23      34  1
      23      31  1
      24      30  1
      25      33  1
      26      32  1
      26      29  1
      27      34  1
      27      33  1
      27      31  1
      28      30  1
      30      31  1
      31      32  1
      32      33  1
      34      35  1

[ angles ]
; ai  aj  ak  funct      th0         cth
     1     2     3   1     120.020    557.3088     ;C1  -C2  -C3  
     1    10     9   1     120.020    557.3088     ;C1  -C10 -C9  
     1    10    35   1     120.020    557.3088     ;C1  -C10 -C22 
     1    11    19   1     120.020    557.3088     ;C1  -C11 -C12 
     2     1    10   1     120.020    557.3088     ;C2  -C1  -C10 
     2     1    11   1     120.020    557.3088     ;C2  -C1  -C11 
     2     3     4   1     120.020    557.3088     ;C2  -C3  -C4  
     2     3     8   1     120.020    557.3088     ;C2  -C3  -C8  
     3     4     5   1     120.020    557.3088     ;C3  -C4  -C5  
     3     8     7   1     120.020    557.3088     ;C3  -C8  -C7  
     3     8     9   1     120.020    557.3088     ;C3  -C8  -C9  
     4     3     8   1     120.020    557.3088     ;C4  -C3  -C8  
     4     5     6   1     120.020    557.3088     ;C4  -C5  -C6  
     5     6     7   1     120.020    557.3088     ;C5  -C6  -C7  
     6     7     8   1     120.020    557.3088     ;C6  -C7  -C8  
     7     8     9   1     120.020    557.3088     ;C7  -C8  -C9  
     8     9    10   1     120.020    557.3088     ;C8  -C9  -C10 
     9    10    35   1     120.020    557.3088     ;C9  -C10 -C22 
    10     1    11   1     120.020    557.3088     ;C10 -C1  -C11 
    10    35    20   1     120.020    557.3088     ;C10 -C22 -C13 
    11    19    20   1     120.020    557.3088     ;C11 -C12 -C13 
    11    19    28   1     120.020    557.3088     ;C11 -C12 -C21 
    19    20    21   1     120.020    557.3088     ;C12 -C13 -C14 
    19    20    35   1     120.020    557.3088     ;C12 -C13 -C22 
    19    28    27   1     120.020    557.3088     ;C12 -C21 -C20 
    20    19    28   1     120.020    557.3088     ;C13 -C12 -C21 
    20    21    22   1     120.020    557.3088     ;C13 -C14 -C15 
    21    20    35   1     120.020    557.3088     ;C14 -C13 -C22 
    21    22    23   1     120.020    557.3088     ;C14 -C15 -C16 
    21    22    27   1     120.020    557.3088     ;C14 -C15 -C20 
    22    23    24   1     120.020    557.3088     ;C15 -C16 -C17 
    22    27    26   1     120.020    557.3088     ;C15 -C20 -C19 
    22    27    28   1     120.020    557.3088     ;C15 -C20 -C21 
    23    22    27   1     120.020    557.3088     ;C16 -C15 -C20 
    23    24    25   1     120.020    557.3088     ;C16 -C17 -C18 
    24    25    26   1     120.020    557.3088     ;C17 -C18 -C19 
    25    26    27   1     120.020    557.3088     ;C18 -C19 -C20 
    26    27    28   1     120.020    557.3088     ;C19 -C20 -C21 
     1     2    12   1     119.880    403.3376     ;C1  -C2  -H1  
     1    11    18   1     119.880    403.3376     ;C1  -C11 -H7  
     3     2    12   1     119.880    403.3376     ;C3  -C2  -H1  
     3     4    13   1     119.880    403.3376     ;C3  -C4  -H2  
     4     5    14   1     119.880    403.3376     ;C4  -C5  -H3  
     5     4    13   1     119.880    403.3376     ;C5  -C4  -H2  
     5     6    15   1     119.880    403.3376     ;C5  -C6  -H4  
     6     5    14   1     119.880    403.3376     ;C6  -C5  -H3  
     6     7    16   1     119.880    403.3376     ;C6  -C7  -H5  
     7     6    15   1     119.880    403.3376     ;C7  -C6  -H4  
     8     7    16   1     119.880    403.3376     ;C8  -C7  -H5  
     8     9    17   1     119.880    403.3376     ;C8  -C9  -H6  
    10     9    17   1     119.880    403.3376     ;C10 -C9  -H6  
    10    35    36   1     119.880    403.3376     ;C10 -C22 -H14 
    18    11    19   1     119.880    403.3376     ;H7  -C11 -C12 
    19    28    29   1     119.880    403.3376     ;C12 -C21 -H8  
    20    21    34   1     119.880    403.3376     ;C13 -C14 -H13 
    20    35    36   1     119.880    403.3376     ;C13 -C22 -H14 
    22    21    34   1     119.880    403.3376     ;C15 -C14 -H13 
    22    23    33   1     119.880    403.3376     ;C15 -C16 -H12 
    23    24    32   1     119.880    403.3376     ;C16 -C17 -H11 
    24    23    33   1     119.880    403.3376     ;C17 -C16 -H12 
    24    25    31   1     119.880    403.3376     ;C17 -C18 -H10 
    25    24    32   1     119.880    403.3376     ;C18 -C17 -H11 
    25    26    30   1     119.880    403.3376     ;C18 -C19 -H9  
    26    25    31   1     119.880    403.3376     ;C19 -C18 -H10 
    27    26    30   1     119.880    403.3376     ;C20 -C19 -H9  
    27    28    29   1     119.880    403.3376     ;C20 -C21 -H8  

[ dihedrals ]
; ai  aj   ak  al  funct    phi0          cp      mult
     1     2     3     4   1     180.000      15.167         2  ;   C1  -C2  -C3  -C4  
     1     2     3     8   1     180.000      15.167         2  ;   C1  -C2  -C3  -C8  
     1    10     9     8   1     180.000      15.167         2  ;eg C1  -C10 -C9  -C8  
     1    10    35    20   1     180.000      15.167         2  ;   C1  -C10 -C22 -C13 
     1    11    19    20   1     180.000      15.167         2  ;eg C1  -C11 -C12 -C13 
     1    11    19    28   1     180.000      15.167         2  ;   C1  -C11 -C12 -C21 
     2     1    10     9   1     180.000      15.167         2  ;   C2  -C1  -C10 -C9  
     2     1    10    35   1     180.000      15.167         2  ;   C2  -C1  -C10 -C22 
     2     1    11    19   1     180.000      15.167         2  ;   C2  -C1  -C11 -C12 
     2     3     4     5   1     180.000      15.167         2  ;   C2  -C3  -C4  -C5  
     2     3     8     7   1     180.000      15.167         2  ;   C2  -C3  -C8  -C7  
     2     3     8     9   1     180.000      15.167         2  ;eg C2  -C3  -C8  -C9  
    10     1     2     3   1     180.000      15.167         2  ;   C10 -C1  -C2  -C3  
    11     1     2     3   1     180.000      15.167         2  ;   C11 -C1  -C2  -C3  
     3     4     5     6   1     180.000      15.167         2  ;   C3  -C4  -C5  -C6  
     3     8     7     6   1     180.000      15.167         2  ;eg C3  -C8  -C7  -C6  
     3     8     9    10   1     180.000      15.167         2  ;eg C3  -C8  -C9  -C10 
     4     3     8     7   1     180.000      15.167         2  ;   C4  -C3  -C8  -C7  
     4     3     8     9   1     180.000      15.167         2  ;   C4  -C3  -C8  -C9  
     4     5     6     7   1     180.000      15.167         2  ;eg C4  -C5  -C6  -C7  
     5     4     3     8   1     180.000      15.167         2  ;   C5  -C4  -C3  -C8  
     5     6     7     8   1     180.000      15.167         2  ;eg C5  -C6  -C7  -C8  
     6     7     8     9   1     180.000      15.167         2  ;   C6  -C7  -C8  -C9  
     7     8     9    10   1     180.000      15.167         2  ;   C7  -C8  -C9  -C10 
     8     9    10    35   1     180.000      15.167         2  ;   C8  -C9  -C10 -C22 
    11     1    10     9   1     180.000      15.167         2  ;   C11 -C1  -C10 -C9  
     9    10    35    20   1     180.000      15.167         2  ;   C9  -C10 -C22 -C13 
    10     1    11    19   1     180.000      15.167         2  ;   C10 -C1  -C11 -C12 
    10    35    20    19   1     180.000      15.167         2  ;eg C10 -C22 -C13 -C12 
    10    35    20    21   1     180.000      15.167         2  ;   C10 -C22 -C13 -C14 
    11     1    10    35   1     180.000      15.167         2  ;   C11 -C1  -C10 -C22 
    11    19    20    21   1     180.000      15.167         2  ;   C11 -C12 -C13 -C14 
    11    19    20    35   1     180.000      15.167         2  ;eg C11 -C12 -C13 -C22 
    11    19    28    27   1     180.000      15.167         2  ;   C11 -C12 -C21 -C20 
    19    20    21    22   1     180.000      15.167         2  ;   C12 -C13 -C14 -C15 
    19    28    27    22   1     180.000      15.167         2  ;eg C12 -C21 -C20 -C15 
    19    28    27    26   1     180.000      15.167         2  ;   C12 -C21 -C20 -C19 
    20    19    28    27   1     180.000      15.167         2  ;   C13 -C12 -C21 -C20 
    20    21    22    23   1     180.000      15.167         2  ;   C13 -C14 -C15 -C16 
    20    21    22    27   1     180.000      15.167         2  ;eg C13 -C14 -C15 -C20 
    21    20    19    28   1     180.000      15.167         2  ;   C14 -C13 -C12 -C21 
    21    22    23    24   1     180.000      15.167         2  ;   C14 -C15 -C16 -C17 
    21    22    27    26   1     180.000      15.167         2  ;   C14 -C15 -C20 -C19 
    21    22    27    28   1     180.000      15.167         2  ;eg C14 -C15 -C20 -C21 
    22    21    20    35   1     180.000      15.167         2  ;   C15 -C14 -C13 -C22 
    22    23    24    25   1     180.000      15.167         2  ;   C15 -C16 -C17 -C18 
    22    27    26    25   1     180.000      15.167         2  ;eg C15 -C20 -C19 -C18 
    23    22    27    26   1     180.000      15.167         2  ;   C16 -C15 -C20 -C19 
    23    22    27    28   1     180.000      15.167         2  ;   C16 -C15 -C20 -C21 
    23    24    25    26   1     180.000      15.167         2  ;eg C16 -C17 -C18 -C19 
    24    23    22    27   1     180.000      15.167         2  ;   C17 -C16 -C15 -C20 
    24    25    26    27   1     180.000      15.167         2  ;eg C17 -C18 -C19 -C20 
    25    26    27    28   1     180.000      15.167         2  ;   C18 -C19 -C20 -C21 
    28    19    20    35   1     180.000      15.167         2  ;   C21 -C12 -C13 -C22 
    11     1    10     2   1     180.000       4.602         2  ;eg C11 -C1  -C10 -C2  
     2     4     3     8   1     180.000       4.602         2  ;eg C2  -C4  -C3  -C8  
     3     7     8     9   1     180.000       4.602         2  ;eg C3  -C7  -C8  -C9  
     1     9    10    35   1     180.000       4.602         2  ;eg C1  -C9  -C10 -C22 
    11    20    19    28   1     180.000       4.602         2  ;eg C11 -C13 -C12 -C21 
    19    21    20    35   1     180.000       4.602         2  ;eg C12 -C14 -C13 -C22 
    21    23    22    27   1     180.000       4.602         2  ;eg C14 -C16 -C15 -C20 
    22    26    27    28   1     180.000       4.602         2  ;eg C15 -C19 -C20 -C21 
     1    10     9    17   1     180.000      15.167         2  ;   C1  -C10 -C9  -H6  
     1    10    35    36   1     180.000      15.167         2  ;   C1  -C10 -C22 -H14 
     2     1    11    18   1     180.000      15.167         2  ;   C2  -C1  -C11 -H7  
     2     3     4    13   1     180.000      15.167         2  ;   C2  -C3  -C4  -H2  
     3     4     5    14   1     180.000      15.167         2  ;   C3  -C4  -C5  -H3  
     3     8     7    16   1     180.000      15.167         2  ;   C3  -C8  -C7  -H5  
     3     8     9    17   1     180.000      15.167         2  ;   C3  -C8  -C9  -H6  
     4     3     2    12   1     180.000      15.167         2  ;   C4  -C3  -C2  -H1  
     4     5     6    15   1     180.000      15.167         2  ;   C4  -C5  -C6  -H4  
     5     6     7    16   1     180.000      15.167         2  ;   C5  -C6  -C7  -H5  
     6     5     4    13   1     180.000      15.167         2  ;   C6  -C5  -C4  -H2  
     7     6     5    14   1     180.000      15.167         2  ;   C7  -C6  -C5  -H3  
     7     8     9    17   1     180.000      15.167         2  ;   C7  -C8  -C9  -H6  
     8     3     2    12   1     180.000      15.167         2  ;   C8  -C3  -C2  -H1  
     8     3     4    13   1     180.000      15.167         2  ;   C8  -C3  -C4  -H2  
     8     7     6    15   1     180.000      15.167         2  ;   C8  -C7  -C6  -H4  
     9     8     7    16   1     180.000      15.167         2  ;   C9  -C8  -C7  -H5  
     9    10    35    36   1     180.000      15.167         2  ;   C9  -C10 -C22 -H14 
    10     1     2    12   1     180.000      15.167         2  ;   C10 -C1  -C2  -H1  
    10     1    11    18   1     180.000      15.167         2  ;   C10 -C1  -C11 -H7  
    11     1     2    12   1     180.000      15.167         2  ;   C11 -C1  -C2  -H1  
    11    19    28    29   1     180.000      15.167         2  ;   C11 -C12 -C21 -H8  
    13     4     5    14   1     180.000      15.167         2  ;   H2  -C4  -C5  -H3  
    14     5     6    15   1     180.000      15.167         2  ;   H3  -C5  -C6  -H4  
    15     6     7    16   1     180.000      15.167         2  ;   H4  -C6  -C7  -H5  
    17     9    10    35   1     180.000      15.167         2  ;   H6  -C9  -C10 -C22 
    18    11    19    20   1     180.000      15.167         2  ;   H7  -C11 -C12 -C13 
    18    11    19    28   1     180.000      15.167         2  ;   H7  -C11 -C12 -C21 
    19    20    21    34   1     180.000      15.167         2  ;   C12 -C13 -C14 -H13 
    19    20    35    36   1     180.000      15.167         2  ;   C12 -C13 -C22 -H14 
    20    19    28    29   1     180.000      15.167         2  ;   C13 -C12 -C21 -H8  
    21    20    35    36   1     180.000      15.167         2  ;   C14 -C13 -C22 -H14 
    21    22    23    33   1     180.000      15.167         2  ;   C14 -C15 -C16 -H12 
    22    23    24    32   1     180.000      15.167         2  ;   C15 -C16 -C17 -H11 
    22    27    26    30   1     180.000      15.167         2  ;   C15 -C20 -C19 -H9  
    22    27    28    29   1     180.000      15.167         2  ;   C15 -C20 -C21 -H8  
    23    22    21    34   1     180.000      15.167         2  ;   C16 -C15 -C14 -H13 
    23    24    25    31   1     180.000      15.167         2  ;   C16 -C17 -C18 -H10 
    24    25    26    30   1     180.000      15.167         2  ;   C17 -C18 -C19 -H9  
    25    24    23    33   1     180.000      15.167         2  ;   C18 -C17 -C16 -H12 
    26    25    24    32   1     180.000      15.167         2  ;   C19 -C18 -C17 -H11 
    26    27    28    29   1     180.000      15.167         2  ;   C19 -C20 -C21 -H8  
    27    22    21    34   1     180.000      15.167         2  ;   C20 -C15 -C14 -H13 
    27    22    23    33   1     180.000      15.167         2  ;   C20 -C15 -C16 -H12 
    27    26    25    31   1     180.000      15.167         2  ;   C20 -C19 -C18 -H10 
    28    27    26    30   1     180.000      15.167         2  ;   C21 -C20 -C19 -H9  
    30    26    25    31   1     180.000      15.167         2  ;   H9  -C19 -C18 -H10 
    31    25    24    32   1     180.000      15.167         2  ;   H10 -C18 -C17 -H11 
    32    24    23    33   1     180.000      15.167         2  ;   H11 -C17 -C16 -H12 
    34    21    20    35   1     180.000      15.167         2  ;   H13 -C14 -C13 -C22 
     1     3     2    12   1     180.000       4.602         2  ;eg C1  -C3  -C2  -H1  
     3     5     4    13   1     180.000       4.602         2  ;eg C3  -C5  -C4  -H2  
     4     6     5    14   1     180.000       4.602         2  ;eg C4  -C6  -C5  -H3  
     5     7     6    15   1     180.000       4.602         2  ;eg C5  -C7  -C6  -H4  
     6     8     7    16   1     180.000       4.602         2  ;eg C6  -C8  -C7  -H5  
     8    10     9    17   1     180.000       4.602         2  ;eg C8  -C10 -C9  -H6  
     1    19    11    18   1     180.000       4.602         2  ;eg C1  -C12 -C11 -H7  
    20    22    21    34   1     180.000       4.602         2  ;eg C13 -C15 -C14 -H13 
    22    24    23    33   1     180.000       4.602         2  ;eg C15 -C17 -C16 -H12 
    23    25    24    32   1     180.000       4.602         2  ;eg C16 -C18 -C17 -H11 
    24    26    25    31   1     180.000       4.602         2  ;eg C17 -C19 -C18 -H10 
    25    27    26    30   1     180.000       4.602         2  ;eg C18 -C20 -C19 -H9  
    19    27    28    29   1     180.000       4.602         2  ;eg C12 -C20 -C21 -H8  
    10    20    35    36   1     180.000       4.602         2  ;eg C10 -C13 -C22 -H14 

 [ system ]
; title from amber topology
pen-esp


 [ molecules ]
; molecule name    nr.
molecule            8